 Entering Gaussian System, Link 0=g09
 Initial command:
 /usr/local/gaussian09/g09/l1.exe /scratch/renato/Gau-25876.inp -scrdir=/scratch/renato/
 Entering Link 1 = /usr/local/gaussian09/g09/l1.exe PID=     25878.
  
 Copyright (c) 1988,1990,1992,1993,1995,1998,2003,2009,2011,
            Gaussian, Inc.  All Rights Reserved.
  
 This is part of the Gaussian(R) 09 program.  It is based on
 the Gaussian(R) 03 system (copyright 2003, Gaussian, Inc.),
 the Gaussian(R) 98 system (copyright 1998, Gaussian, Inc.),
 the Gaussian(R) 94 system (copyright 1995, Gaussian, Inc.),
 the Gaussian 92(TM) system (copyright 1992, Gaussian, Inc.),
 the Gaussian 90(TM) system (copyright 1990, Gaussian, Inc.),
 the Gaussian 88(TM) system (copyright 1988, Gaussian, Inc.),
 the Gaussian 86(TM) system (copyright 1986, Carnegie Mellon
 University), and the Gaussian 82(TM) system (copyright 1983,
 Carnegie Mellon University). Gaussian is a federally registered
 trademark of Gaussian, Inc.
  
 This software contains proprietary and confidential information,
 including trade secrets, belonging to Gaussian, Inc.
  
 This software is provided under written license and may be
 used, copied, transmitted, or stored only in accord with that
 written license.
  
 The following legend is applicable only to US Government
 contracts under FAR:
  
                    RESTRICTED RIGHTS LEGEND
  
 Use, reproduction and disclosure by the US Government is
 subject to restrictions as set forth in subparagraphs (a)
 and (c) of the Commercial Computer Software - Restricted
 Rights clause in FAR 52.227-19.
  
 Gaussian, Inc.
 340 Quinnipiac St., Bldg. 40, Wallingford CT 06492
  
  
 ---------------------------------------------------------------
 Warning -- This program may not be used in any manner that
 competes with the business of Gaussian, Inc. or will provide
 assistance to any competitor of Gaussian, Inc.  The licensee
 of this program is prohibited from giving any competitor of
 Gaussian, Inc. access to this program.  By using this program,
 the user acknowledges that Gaussian, Inc. is engaged in the
 business of creating and licensing software in the field of
 computational chemistry and represents and warrants to the
 licensee that it is not a competitor of Gaussian, Inc. and that
 it will not use this program in any manner prohibited above.
 ---------------------------------------------------------------
  

 Cite this work as:
 Gaussian 09, Revision C.01,
 M. J. Frisch, G. W. Trucks, H. B. Schlegel, G. E. Scuseria, 
 M. A. Robb, J. R. Cheeseman, G. Scalmani, V. Barone, B. Mennucci, 
 G. A. Petersson, H. Nakatsuji, M. Caricato, X. Li, H. P. Hratchian, 
 A. F. Izmaylov, J. Bloino, G. Zheng, J. L. Sonnenberg, M. Hada, 
 M. Ehara, K. Toyota, R. Fukuda, J. Hasegawa, M. Ishida, T. Nakajima, 
 Y. Honda, O. Kitao, H. Nakai, T. Vreven, J. A. Montgomery, Jr., 
 J. E. Peralta, F. Ogliaro, M. Bearpark, J. J. Heyd, E. Brothers, 
 K. N. Kudin, V. N. Staroverov, T. Keith, R. Kobayashi, J. Normand, 
 K. Raghavachari, A. Rendell, J. C. Burant, S. S. Iyengar, J. Tomasi, 
 M. Cossi, N. Rega, J. M. Millam, M. Klene, J. E. Knox, J. B. Cross, 
 V. Bakken, C. Adamo, J. Jaramillo, R. Gomperts, R. E. Stratmann, 
 O. Yazyev, A. J. Austin, R. Cammi, C. Pomelli, J. W. Ochterski, 
 R. L. Martin, K. Morokuma, V. G. Zakrzewski, G. A. Voth, 
 P. Salvador, J. J. Dannenberg, S. Dapprich, A. D. Daniels, 
 O. Farkas, J. B. Foresman, J. V. Ortiz, J. Cioslowski, 
 and D. J. Fox, Gaussian, Inc., Wallingford CT, 2010.
 
 ******************************************
 Gaussian 09:  EM64L-G09RevC.01 23-Sep-2011
                29-Jun-2018 
 ******************************************
 %nproc=2
 Will use up to    2 processors via shared memory.
 %mem=256MB
 %RWF=d23.rwf
 %chk=d2311
 %NoSave
 --------------------------------------
 #SP PBE1PBE/Def2TZVP geom=connectivity
 --------------------------------------
 1/38=1,57=2/1;
 2/12=2,17=6,18=5,40=1/2;
 3/5=44,7=101,11=2,16=1,25=1,30=1,74=-13/1,2,3;
 4//1;
 5/5=2,38=5/2;
 6/7=2,8=2,9=2,10=2,28=1/1;
 99/5=1,9=1/99;
 -------------
 Structure: 11
 -------------
 Charge =  0 Multiplicity = 1
 Symbolic Z-Matrix:
 H                     0.        0.        0. 
 C                     1.093     0.        0. 
 C                     1.655     1.421     0. 
 H                     1.41     -0.56     -0.885 
 H                     1.424    -0.557     0.88 
 H                     1.308     1.969    -0.883 
 Si                    3.513     1.515     0.035 
 H                     1.282     1.975     0.868 
 O                     4.106     2.807    -0.8 
 O                     4.044     0.091    -0.587 
 H                     4.062     1.708     1.402 
 H                     3.829     2.909    -1.712 
 C                     5.402    -0.272    -0.662 
 H                     5.465    -1.292    -1.047 
 H                     5.88     -0.244     0.324 
 H                     5.958     0.39     -1.333 
 
                          Input orientation:                          
 ---------------------------------------------------------------------
 Center     Atomic      Atomic             Coordinates (Angstroms)
 Number     Number       Type             X           Y           Z
 ---------------------------------------------------------------------
      1          1           0        0.000000    0.000000    0.000000
      2          6           0        1.093000    0.000000    0.000000
      3          6           0        1.655000    1.421000    0.000000
      4          1           0        1.410000   -0.560000   -0.885000
      5          1           0        1.424000   -0.557000    0.880000
      6          1           0        1.308000    1.969000   -0.883000
      7         14           0        3.513000    1.515000    0.035000
      8          1           0        1.282000    1.975000    0.868000
      9          8           0        4.106000    2.807000   -0.800000
     10          8           0        4.044000    0.091000   -0.587000
     11          1           0        4.062000    1.708000    1.402000
     12          1           0        3.829000    2.909000   -1.712000
     13          6           0        5.402000   -0.272000   -0.662000
     14          1           0        5.465000   -1.292000   -1.047000
     15          1           0        5.880000   -0.244000    0.324000
     16          1           0        5.958000    0.390000   -1.333000
 ---------------------------------------------------------------------
                    Distance matrix (angstroms):
                    1          2          3          4          5
     1  H    0.000000
     2  C    1.093000   0.000000
     3  C    2.181345   1.528098   0.000000
     4  H    1.756395   1.094218   2.183486   0.000000
     5  H    1.764207   1.092799   2.177210   1.765058   0.000000
     6  H    2.523393   2.168611   1.095629   2.531057   3.082580
     7  Si   3.825914   2.855320   1.860706   3.094291   3.061230
     8  H    2.509497   2.165588   1.095203   3.084740   2.536007
     9  O    5.037706   4.194928   2.927182   4.314201   4.618660
    10  O    4.087394   3.010191   2.796568   2.729572   3.071871
    11  H    4.624144   3.701058   2.800290   4.172205   3.515928
    12  H    5.104358   4.344988   3.141873   4.309229   4.951328
    13  C    5.449205   4.368033   4.164673   4.008583   4.275918
    14  H    5.712416   4.677591   4.792982   4.123723   4.536875
    15  H    5.893973   4.804152   4.552782   4.641383   4.501449
    16  H    6.117741   5.059369   4.621218   4.667709   5.133355
                    6          7          8          9         10
     6  H    0.000000
     7  Si   2.431227   0.000000
     8  H    1.751203   2.425459   0.000000
     9  O    2.921975   1.648678   3.383700   0.000000
    10  O    3.331696   1.642139   3.646248   2.725045   0.000000
    11  H    3.588016   1.485712   2.843386   2.461410   2.563422
    12  H    2.815365   2.257233   3.743790   0.958581   3.041870
    13  C    4.672447   2.692118   4.936022   3.343486   1.407678
    14  H    5.285988   3.586123   5.642517   4.325470   2.035566
    15  H    5.220862   2.963156   5.134345   3.703924   2.076786
    16  H    4.931353   3.019118   5.405701   3.091259   2.075888
                   11         12         13         14         15
    11  H    0.000000
    12  H    3.345697   0.000000
    13  C    3.158496   3.700755   0.000000
    14  H    4.118982   4.557096   1.092060   0.000000
    15  H    2.877067   4.277067   1.096113   1.774872   0.000000
    16  H    3.579408   3.319886   1.094359   1.775942   1.775863
                   16
    16  H    0.000000
 Stoichiometry    C3H10O2Si
 Framework group  C1[X(C3H10O2Si)]
 Deg. of freedom    42
 Full point group                 C1      NOp   1
 Largest Abelian subgroup         C1      NOp   1
 Largest concise Abelian subgroup C1      NOp   1
                         Standard orientation:                         
 ---------------------------------------------------------------------
 Center     Atomic      Atomic             Coordinates (Angstroms)
 Number     Number       Type             X           Y           Z
 ---------------------------------------------------------------------
      1          1           0       -3.309298   -1.084494   -0.346531
      2          6           0       -2.234488   -1.057791   -0.149754
      3          6           0       -1.725550    0.375519   -0.002481
      4          1           0       -1.747070   -1.576357   -0.980914
      5          1           0       -2.049439   -1.639091    0.756920
      6          1           0       -1.925519    0.947548   -0.915277
      7         14           0        0.092369    0.513507    0.369481
      8          1           0       -2.264807    0.887358    0.801690
      9          8           0        0.785276    1.849962   -0.302760
     10          8           0        0.769708   -0.872812   -0.192616
     11          1           0        0.381519    0.668553    1.818512
     12          1           0        0.673053    1.979233   -1.245931
     13          6           0        2.129702   -1.199464   -0.033640
     14          1           0        2.291965   -2.202492   -0.433887
     15          1           0        2.422331   -1.196725    1.022687
     16          1           0        2.776236   -0.499423   -0.571744
 ---------------------------------------------------------------------
 Rotational constants (GHZ):      3.5743516      2.1761541      1.4774587
 Standard basis: def2TZVP (5D, 7F)
 There are   252 symmetry adapted basis functions of A   symmetry.
 Integral buffers will be    131072 words long.
 Raffenetti 2 integral format.
 Two-electron integral symmetry is turned on.
   252 basis functions,   404 primitive gaussians,   282 cartesian basis functions
    29 alpha electrons       29 beta electrons
       nuclear repulsion energy       329.3509252193 Hartrees.
 NAtoms=   16 NActive=   16 NUniq=   16 SFac= 1.00D+00 NAtFMM=   60 NAOKFM=F Big=F
 One-electron integrals computed using PRISM.
   1 Symmetry operations used in ECPInt.
 ECPInt:  NShTT=    5886 NPrTT=   17754 LenC2=    5780 LenP2D=   13916.
 LDataN:  DoStor=T MaxTD1= 6 Len=  172
 NBasis=   252 RedAO= T  NBF=   252
 NBsUse=   252 1.00D-06 NBFU=   252
 Harris functional with IExCor= 1009 diagonalized for initial guess.
 ExpMin= 7.01D-02 ExpMax= 4.48D+04 ExpMxC= 1.53D+03 IAcc=2 IRadAn=         4 AccDes= 0.00D+00
 HarFok:  IExCor= 1009 AccDes= 0.00D+00 IRadAn=         4 IDoV= 1
 ScaDFX=  1.000000  1.000000  1.000000  1.000000
 FoFCou: FMM=F IPFlag=           0 FMFlag=      100000 FMFlg1=           0
         NFxFlg=           0 DoJE=T BraDBF=F KetDBF=T FulRan=T
         Omega=  0.000000  0.000000  1.000000  0.000000  0.000000 ICntrl=     500 IOpCl=  0
         NMat0=    1 NMatS0=    1 NMatT0=    0 NMatD0=    1 NMtDS0=    0 NMtDT0=    0
         I1Cent=           4 NGrid=           0.
 Petite list used in FoFCou.
 Initial guess orbital symmetries:
       Occupied  (A) (A) (A) (A) (A) (A) (A) (A) (A) (A) (A) (A)
                 (A) (A) (A) (A) (A) (A) (A) (A) (A) (A) (A) (A)
                 (A) (A) (A) (A) (A)
       Virtual   (A) (A) (A) (A) (A) (A) (A) (A) (A) (A) (A) (A)
                 (A) (A) (A) (A) (A) (A) (A) (A) (A) (A) (A) (A)
                 (A) (A) (A) (A) (A) (A) (A) (A) (A) (A) (A) (A)
                 (A) (A) (A) (A) (A) (A) (A) (A) (A) (A) (A) (A)
                 (A) (A) (A) (A) (A) (A) (A) (A) (A) (A) (A) (A)
                 (A) (A) (A) (A) (A) (A) (A) (A) (A) (A) (A) (A)
                 (A) (A) (A) (A) (A) (A) (A) (A) (A) (A) (A) (A)
                 (A) (A) (A) (A) (A) (A) (A) (A) (A) (A) (A) (A)
                 (A) (A) (A) (A) (A) (A) (A) (A) (A) (A) (A) (A)
                 (A) (A) (A) (A) (A) (A) (A) (A) (A) (A) (A) (A)
                 (A) (A) (A) (A) (A) (A) (A) (A) (A) (A) (A) (A)
                 (A) (A) (A) (A) (A) (A) (A) (A) (A) (A) (A) (A)
                 (A) (A) (A) (A) (A) (A) (A) (A) (A) (A) (A) (A)
                 (A) (A) (A) (A) (A) (A) (A) (A) (A) (A) (A) (A)
                 (A) (A) (A) (A) (A) (A) (A) (A) (A) (A) (A) (A)
                 (A) (A) (A) (A) (A) (A) (A) (A) (A) (A) (A) (A)
                 (A) (A) (A) (A) (A) (A) (A) (A) (A) (A) (A) (A)
                 (A) (A) (A) (A) (A) (A) (A) (A) (A) (A) (A) (A)
                 (A) (A) (A) (A) (A) (A) (A)
 The electronic state of the initial guess is 1-A.
 Requested convergence on RMS density matrix=1.00D-08 within 128 cycles.
 Requested convergence on MAX density matrix=1.00D-06.
 Requested convergence on             energy=1.00D-06.
 No special actions if energy rises.
 Integral accuracy reduced to 1.0D-05 until final iterations.
 Initial convergence to 1.0D-05 achieved.  Increase integral accuracy.
 SCF Done:  E(RPBE1PBE) =  -560.059641201     A.U. after   12 cycles
             Convg  =    0.7156D-08             -V/T =  2.0032

 **********************************************************************

            Population analysis using the SCF density.

 **********************************************************************

 Orbital symmetries:
       Occupied  (A) (A) (A) (A) (A) (A) (A) (A) (A) (A) (A) (A)
                 (A) (A) (A) (A) (A) (A) (A) (A) (A) (A) (A) (A)
                 (A) (A) (A) (A) (A)
       Virtual   (A) (A) (A) (A) (A) (A) (A) (A) (A) (A) (A) (A)
                 (A) (A) (A) (A) (A) (A) (A) (A) (A) (A) (A) (A)
                 (A) (A) (A) (A) (A) (A) (A) (A) (A) (A) (A) (A)
                 (A) (A) (A) (A) (A) (A) (A) (A) (A) (A) (A) (A)
                 (A) (A) (A) (A) (A) (A) (A) (A) (A) (A) (A) (A)
                 (A) (A) (A) (A) (A) (A) (A) (A) (A) (A) (A) (A)
                 (A) (A) (A) (A) (A) (A) (A) (A) (A) (A) (A) (A)
                 (A) (A) (A) (A) (A) (A) (A) (A) (A) (A) (A) (A)
                 (A) (A) (A) (A) (A) (A) (A) (A) (A) (A) (A) (A)
                 (A) (A) (A) (A) (A) (A) (A) (A) (A) (A) (A) (A)
                 (A) (A) (A) (A) (A) (A) (A) (A) (A) (A) (A) (A)
                 (A) (A) (A) (A) (A) (A) (A) (A) (A) (A) (A) (A)
                 (A) (A) (A) (A) (A) (A) (A) (A) (A) (A) (A) (A)
                 (A) (A) (A) (A) (A) (A) (A) (A) (A) (A) (A) (A)
                 (A) (A) (A) (A) (A) (A) (A) (A) (A) (A) (A) (A)
                 (A) (A) (A) (A) (A) (A) (A) (A) (A) (A) (A) (A)
                 (A) (A) (A) (A) (A) (A) (A) (A) (A) (A) (A) (A)
                 (A) (A) (A) (A) (A) (A) (A) (A) (A) (A) (A) (A)
                 (A) (A) (A) (A) (A) (A) (A)
 The electronic state is 1-A.
 Alpha  occ. eigenvalues --  -66.25393 -19.20259 -19.20044 -10.26458 -10.21038
 Alpha  occ. eigenvalues --  -10.20826  -5.33058  -3.66589  -3.66469  -3.66329
 Alpha  occ. eigenvalues --   -1.04489  -1.02307  -0.77883  -0.70457  -0.63752
 Alpha  occ. eigenvalues --   -0.56727  -0.51223  -0.47056  -0.46802  -0.45490
 Alpha  occ. eigenvalues --   -0.42640  -0.40905  -0.38893  -0.37948  -0.35773
 Alpha  occ. eigenvalues --   -0.35356  -0.31737  -0.30687  -0.29498
 Alpha virt. eigenvalues --    0.03203   0.04322   0.05571   0.08343   0.08691
 Alpha virt. eigenvalues --    0.10664   0.11156   0.11712   0.12188   0.13256
 Alpha virt. eigenvalues --    0.14504   0.14838   0.15581   0.18189   0.19349
 Alpha virt. eigenvalues --    0.21203   0.21734   0.23753   0.24562   0.24987
 Alpha virt. eigenvalues --    0.26516   0.28043   0.29230   0.29751   0.31859
 Alpha virt. eigenvalues --    0.36067   0.36711   0.39116   0.39528   0.41055
 Alpha virt. eigenvalues --    0.42038   0.43093   0.43728   0.44811   0.45361
 Alpha virt. eigenvalues --    0.45863   0.47119   0.47833   0.50648   0.51227
 Alpha virt. eigenvalues --    0.51777   0.54321   0.55202   0.55930   0.57497
 Alpha virt. eigenvalues --    0.60367   0.62131   0.64759   0.66925   0.68416
 Alpha virt. eigenvalues --    0.72567   0.74741   0.77834   0.79313   0.80517
 Alpha virt. eigenvalues --    0.82337   0.82875   0.88003   0.88731   0.92341
 Alpha virt. eigenvalues --    0.93575   0.94763   0.96656   1.00654   1.02692
 Alpha virt. eigenvalues --    1.04617   1.07749   1.08013   1.09452   1.10352
 Alpha virt. eigenvalues --    1.12532   1.13702   1.15732   1.19203   1.22095
 Alpha virt. eigenvalues --    1.24014   1.28542   1.35060   1.35789   1.39112
 Alpha virt. eigenvalues --    1.41762   1.46886   1.49349   1.50397   1.51491
 Alpha virt. eigenvalues --    1.53164   1.54935   1.55900   1.57249   1.59730
 Alpha virt. eigenvalues --    1.60020   1.61022   1.61421   1.63505   1.67041
 Alpha virt. eigenvalues --    1.67467   1.71336   1.76277   1.76957   1.80361
 Alpha virt. eigenvalues --    1.81923   1.85435   1.85776   1.90462   1.93119
 Alpha virt. eigenvalues --    1.94823   1.95458   1.97656   2.01958   2.03395
 Alpha virt. eigenvalues --    2.04927   2.09165   2.10624   2.14333   2.16008
 Alpha virt. eigenvalues --    2.17132   2.18119   2.23235   2.26043   2.30550
 Alpha virt. eigenvalues --    2.31668   2.33421   2.34242   2.35725   2.36367
 Alpha virt. eigenvalues --    2.37713   2.41672   2.46501   2.47639   2.49981
 Alpha virt. eigenvalues --    2.51989   2.52113   2.54508   2.56521   2.57873
 Alpha virt. eigenvalues --    2.59837   2.61055   2.65969   2.66933   2.70035
 Alpha virt. eigenvalues --    2.73583   2.75730   2.79890   2.83312   2.83976
 Alpha virt. eigenvalues --    2.86372   2.91937   2.97608   2.99054   3.02614
 Alpha virt. eigenvalues --    3.04519   3.09553   3.10126   3.12915   3.16771
 Alpha virt. eigenvalues --    3.21777   3.22757   3.23730   3.28276   3.29444
 Alpha virt. eigenvalues --    3.32181   3.35220   3.37149   3.42241   3.42867
 Alpha virt. eigenvalues --    3.45734   3.46268   3.49753   3.52387   3.53953
 Alpha virt. eigenvalues --    3.58542   3.60716   3.62335   3.66077   3.77276
 Alpha virt. eigenvalues --    3.82241   3.87800   3.93213   3.96120   4.03847
 Alpha virt. eigenvalues --    4.19045   4.24861   4.25107   4.35164   4.36950
 Alpha virt. eigenvalues --    4.43459   4.47048   4.54125   4.56728   4.79487
 Alpha virt. eigenvalues --    5.15705   5.16963   5.18101   5.18338   5.28458
 Alpha virt. eigenvalues --    5.29104   5.38820   5.41739   5.45448   5.50126
 Alpha virt. eigenvalues --    5.80014   5.86836   6.04290   6.22490   6.39739
 Alpha virt. eigenvalues --    6.41789   6.53397   6.58847   6.61298   6.66073
 Alpha virt. eigenvalues --    6.67593   6.78402   6.82226   6.98094   7.05931
 Alpha virt. eigenvalues --    7.16970   7.22587  11.89834  22.38212  22.41409
 Alpha virt. eigenvalues --   22.45106  43.60361  43.94881
          Condensed to atoms (all electrons):
              1          2          3          4          5          6
     1  H    0.577474   0.396278  -0.028798  -0.029291  -0.027112  -0.007183
     2  C    0.396278   4.922983   0.282077   0.410586   0.409059  -0.027137
     3  C   -0.028798   0.282077   5.100345  -0.036062  -0.039191   0.371064
     4  H   -0.029291   0.410586  -0.036062   0.542620  -0.019807  -0.003855
     5  H   -0.027112   0.409059  -0.039191  -0.019807   0.558156   0.008107
     6  H   -0.007183  -0.027137   0.371064  -0.003855   0.008107   0.592567
     7  Si   0.005756  -0.015497   0.420323  -0.008450  -0.006841  -0.022407
     8  H   -0.007830  -0.027868   0.387569   0.007240  -0.003697  -0.024548
     9  O   -0.000110   0.003825  -0.044962  -0.000089  -0.000042   0.000451
    10  O    0.000694   0.001389  -0.038347   0.006575  -0.000213   0.000734
    11  H   -0.000259   0.001870  -0.040481   0.000530   0.001474   0.003068
    12  H   -0.000007   0.000240  -0.004024  -0.000022   0.000016   0.002556
    13  C    0.000000  -0.000469   0.002234   0.000110  -0.000027  -0.000091
    14  H   -0.000020   0.000057  -0.000137  -0.000166   0.000006   0.000020
    15  H    0.000001  -0.000298   0.000006   0.000124   0.000151   0.000007
    16  H    0.000009   0.000143   0.000303  -0.000023  -0.000021  -0.000010
              7          8          9         10         11         12
     1  H    0.005756  -0.007830  -0.000110   0.000694  -0.000259  -0.000007
     2  C   -0.015497  -0.027868   0.003825   0.001389   0.001870   0.000240
     3  C    0.420323   0.387569  -0.044962  -0.038347  -0.040481  -0.004024
     4  H   -0.008450   0.007240  -0.000089   0.006575   0.000530  -0.000022
     5  H   -0.006841  -0.003697  -0.000042  -0.000213   0.001474   0.000016
     6  H   -0.022407  -0.024548   0.000451   0.000734   0.003068   0.002556
     7  Si  11.880918  -0.024672   0.480011   0.443987   0.390559  -0.025945
     8  H   -0.024672   0.568217   0.000943   0.001262   0.000186  -0.000125
     9  O    0.480011   0.000943   7.844859  -0.034962  -0.017489   0.299045
    10  O    0.443987   0.001262  -0.034962   7.842024  -0.027058  -0.001157
    11  H    0.390559   0.000186  -0.017489  -0.027058   0.739528   0.004179
    12  H   -0.025945  -0.000125   0.299045  -0.001157   0.004179   0.406243
    13  C   -0.050120  -0.000119  -0.006979   0.264709   0.002485   0.000741
    14  H    0.008788   0.000007   0.000057  -0.041967  -0.000234   0.000021
    15  H   -0.017206   0.000007  -0.000535  -0.043636   0.010080  -0.000040
    16  H   -0.006262  -0.000010   0.006721  -0.041385  -0.002029   0.000324
             13         14         15         16
     1  H    0.000000  -0.000020   0.000001   0.000009
     2  C   -0.000469   0.000057  -0.000298   0.000143
     3  C    0.002234  -0.000137   0.000006   0.000303
     4  H    0.000110  -0.000166   0.000124  -0.000023
     5  H   -0.000027   0.000006   0.000151  -0.000021
     6  H   -0.000091   0.000020   0.000007  -0.000010
     7  Si  -0.050120   0.008788  -0.017206  -0.006262
     8  H   -0.000119   0.000007   0.000007  -0.000010
     9  O   -0.006979   0.000057  -0.000535   0.006721
    10  O    0.264709  -0.041967  -0.043636  -0.041385
    11  H    0.002485  -0.000234   0.010080  -0.002029
    12  H    0.000741   0.000021  -0.000040   0.000324
    13  C    4.766503   0.401905   0.420156   0.410522
    14  H    0.401905   0.568612  -0.030992  -0.033762
    15  H    0.420156  -0.030992   0.591524  -0.047451
    16  H    0.410522  -0.033762  -0.047451   0.593800
 Mulliken atomic charges:
              1
     1  H    0.120399
     2  C   -0.357237
     3  C   -0.331919
     4  H    0.129981
     5  H    0.119983
     6  H    0.106658
     7  Si   0.547060
     8  H    0.123438
     9  O   -0.530743
    10  O   -0.332648
    11  H   -0.066406
    12  H    0.317956
    13  C   -0.211560
    14  H    0.127806
    15  H    0.118103
    16  H    0.119130
 Sum of Mulliken atomic charges =   0.00000
 Mulliken charges with hydrogens summed into heavy atoms:
              1
     2  C    0.013126
     3  C   -0.101823
     7  Si   0.480654
     9  O   -0.212788
    10  O   -0.332648
    13  C    0.153480
 Sum of Mulliken charges with hydrogens summed into heavy atoms =   0.00000
 Electronic spatial extent (au):  <R**2>=            871.2174
 Charge=              0.0000 electrons
 Dipole moment (field-independent basis, Debye):
    X=             -0.0899    Y=             -0.2906    Z=             -1.0940  Tot=              1.1355
 Quadrupole moment (field-independent basis, Debye-Ang):
   XX=            -42.8873   YY=            -47.4349   ZZ=            -42.9370
   XY=             -3.1685   XZ=             -0.9801   YZ=             -3.3784
 Traceless Quadrupole moment (field-independent basis, Debye-Ang):
   XX=              1.5324   YY=             -3.0151   ZZ=              1.4828
   XY=             -3.1685   XZ=             -0.9801   YZ=             -3.3784
 Octapole moment (field-independent basis, Debye-Ang**2):
  XXX=             12.9268  YYY=             -2.6598  ZZZ=            -10.2028  XYY=              1.7441
  XXY=             -3.9766  XXZ=             -1.4504  XZZ=              3.1951  YZZ=              6.3931
  YYZ=             -7.5895  XYZ=             -2.0927
 Hexadecapole moment (field-independent basis, Debye-Ang**3):
 XXXX=           -678.0264 YYYY=           -383.6441 ZZZZ=           -111.0174 XXXY=            -11.2258
 XXXZ=             -4.5320 YYYX=            -13.6050 YYYZ=            -15.2534 ZZZX=             -6.0205
 ZZZY=            -15.6059 XXYY=           -178.0300 XXZZ=           -130.5909 YYZZ=            -67.6502
 XXYZ=             -1.7577 YYXZ=             -7.0810 ZZXY=              2.7831
 N-N= 3.293509252193D+02 E-N=-1.982751672113D+03  KE= 5.582502737696D+02
 1\1\GINC-TARSUS2\SP\RPBE1PBE\def2TZVP\C3H10O2Si1\RENATO\29-Jun-2018\0\
 \#SP PBE1PBE/Def2TZVP geom=connectivity\\Structure: 11\\0,1\H,0,0.,0.,
 0.\C,0,1.093,0.,0.\C,0,1.655,1.421,0.\H,0,1.41,-0.56,-0.885\H,0,1.424,
 -0.557,0.88\H,0,1.308,1.969,-0.883\Si,0,3.513,1.515,0.035\H,0,1.282,1.
 975,0.868\O,0,4.106,2.807,-0.8\O,0,4.044,0.091,-0.587\H,0,4.062,1.708,
 1.402\H,0,3.829,2.909,-1.712\C,0,5.402,-0.272,-0.662\H,0,5.465,-1.292,
 -1.047\H,0,5.88,-0.244,0.324\H,0,5.958,0.39,-1.333\\Version=EM64L-G09R
 evC.01\State=1-A\HF=-560.0596412\RMSD=7.156e-09\Dipole=-0.1150633,-0.1
 270848,-0.4125547\Quadrupole=0.742773,-2.2515262,1.5087532,-2.8681255,
 -0.6308167,-1.8936313\PG=C01 [X(C3H10O2Si1)]\\@


 ALL PAPERS THAT YOU SAVE WILL NEVER BE NEEDED UNTIL
 SUCH TIME AS THEY ARE DISPOSED OF, WHEN THEY BECOME
 ESSENTIAL.

           -- JOHN CORCORAN IN
              PAUL DICKSON'S "THE OFFICIAL RULES"
 Job cpu time:  0 days  0 hours  4 minutes 58.4 seconds.
 File lengths (MBytes):  RWF=     40 Int=      0 D2E=      0 Chk=      3 Scr=      1
 Normal termination of Gaussian 09 at Fri Jun 29 10:31:02 2018.
