 Entering Gaussian System, Link 0=g09
 Initial command:
 /usr/local/gaussian09/g09/l1.exe /scratch/renato/Gau-26369.inp -scrdir=/scratch/renato/
 Entering Link 1 = /usr/local/gaussian09/g09/l1.exe PID=     26371.
  
 Copyright (c) 1988,1990,1992,1993,1995,1998,2003,2009,2011,
            Gaussian, Inc.  All Rights Reserved.
  
 This is part of the Gaussian(R) 09 program.  It is based on
 the Gaussian(R) 03 system (copyright 2003, Gaussian, Inc.),
 the Gaussian(R) 98 system (copyright 1998, Gaussian, Inc.),
 the Gaussian(R) 94 system (copyright 1995, Gaussian, Inc.),
 the Gaussian 92(TM) system (copyright 1992, Gaussian, Inc.),
 the Gaussian 90(TM) system (copyright 1990, Gaussian, Inc.),
 the Gaussian 88(TM) system (copyright 1988, Gaussian, Inc.),
 the Gaussian 86(TM) system (copyright 1986, Carnegie Mellon
 University), and the Gaussian 82(TM) system (copyright 1983,
 Carnegie Mellon University). Gaussian is a federally registered
 trademark of Gaussian, Inc.
  
 This software contains proprietary and confidential information,
 including trade secrets, belonging to Gaussian, Inc.
  
 This software is provided under written license and may be
 used, copied, transmitted, or stored only in accord with that
 written license.
  
 The following legend is applicable only to US Government
 contracts under FAR:
  
                    RESTRICTED RIGHTS LEGEND
  
 Use, reproduction and disclosure by the US Government is
 subject to restrictions as set forth in subparagraphs (a)
 and (c) of the Commercial Computer Software - Restricted
 Rights clause in FAR 52.227-19.
  
 Gaussian, Inc.
 340 Quinnipiac St., Bldg. 40, Wallingford CT 06492
  
  
 ---------------------------------------------------------------
 Warning -- This program may not be used in any manner that
 competes with the business of Gaussian, Inc. or will provide
 assistance to any competitor of Gaussian, Inc.  The licensee
 of this program is prohibited from giving any competitor of
 Gaussian, Inc. access to this program.  By using this program,
 the user acknowledges that Gaussian, Inc. is engaged in the
 business of creating and licensing software in the field of
 computational chemistry and represents and warrants to the
 licensee that it is not a competitor of Gaussian, Inc. and that
 it will not use this program in any manner prohibited above.
 ---------------------------------------------------------------
  

 Cite this work as:
 Gaussian 09, Revision C.01,
 M. J. Frisch, G. W. Trucks, H. B. Schlegel, G. E. Scuseria, 
 M. A. Robb, J. R. Cheeseman, G. Scalmani, V. Barone, B. Mennucci, 
 G. A. Petersson, H. Nakatsuji, M. Caricato, X. Li, H. P. Hratchian, 
 A. F. Izmaylov, J. Bloino, G. Zheng, J. L. Sonnenberg, M. Hada, 
 M. Ehara, K. Toyota, R. Fukuda, J. Hasegawa, M. Ishida, T. Nakajima, 
 Y. Honda, O. Kitao, H. Nakai, T. Vreven, J. A. Montgomery, Jr., 
 J. E. Peralta, F. Ogliaro, M. Bearpark, J. J. Heyd, E. Brothers, 
 K. N. Kudin, V. N. Staroverov, T. Keith, R. Kobayashi, J. Normand, 
 K. Raghavachari, A. Rendell, J. C. Burant, S. S. Iyengar, J. Tomasi, 
 M. Cossi, N. Rega, J. M. Millam, M. Klene, J. E. Knox, J. B. Cross, 
 V. Bakken, C. Adamo, J. Jaramillo, R. Gomperts, R. E. Stratmann, 
 O. Yazyev, A. J. Austin, R. Cammi, C. Pomelli, J. W. Ochterski, 
 R. L. Martin, K. Morokuma, V. G. Zakrzewski, G. A. Voth, 
 P. Salvador, J. J. Dannenberg, S. Dapprich, A. D. Daniels, 
 O. Farkas, J. B. Foresman, J. V. Ortiz, J. Cioslowski, 
 and D. J. Fox, Gaussian, Inc., Wallingford CT, 2010.
 
 ******************************************
 Gaussian 09:  EM64L-G09RevC.01 23-Sep-2011
                29-Jun-2018 
 ******************************************
 %nproc=2
 Will use up to    2 processors via shared memory.
 %mem=256MB
 %RWF=d23.rwf
 %chk=d2313
 %NoSave
 --------------------------------------
 #SP PBE1PBE/Def2TZVP geom=connectivity
 --------------------------------------
 1/38=1,57=2/1;
 2/12=2,17=6,18=5,40=1/2;
 3/5=44,7=101,11=2,16=1,25=1,30=1,74=-13/1,2,3;
 4//1;
 5/5=2,38=5/2;
 6/7=2,8=2,9=2,10=2,28=1/1;
 99/5=1,9=1/99;
 -------------
 Structure: 13
 -------------
 Charge =  0 Multiplicity = 1
 Symbolic Z-Matrix:
 H                     0.        0.        0. 
 C                     1.093     0.        0. 
 C                     1.655     1.421     0. 
 H                     1.41     -0.56     -0.885 
 H                     1.424    -0.557     0.88 
 H                     1.308     1.969    -0.883 
 Si                    3.513     1.515     0.035 
 H                     1.282     1.975     0.868 
 O                     4.101     2.863    -0.71 
 O                     4.043     0.138    -0.686 
 H                     4.067     1.614     1.41 
 H                     3.821     3.028    -1.612 
 C                     5.402    -0.217    -0.791 
 H                     5.465    -1.207    -1.247 
 H                     5.883    -0.257     0.193 
 H                     5.955     0.492    -1.417 
 
                          Input orientation:                          
 ---------------------------------------------------------------------
 Center     Atomic      Atomic             Coordinates (Angstroms)
 Number     Number       Type             X           Y           Z
 ---------------------------------------------------------------------
      1          1           0        0.000000    0.000000    0.000000
      2          6           0        1.093000    0.000000    0.000000
      3          6           0        1.655000    1.421000    0.000000
      4          1           0        1.410000   -0.560000   -0.885000
      5          1           0        1.424000   -0.557000    0.880000
      6          1           0        1.308000    1.969000   -0.883000
      7         14           0        3.513000    1.515000    0.035000
      8          1           0        1.282000    1.975000    0.868000
      9          8           0        4.101000    2.863000   -0.710000
     10          8           0        4.043000    0.138000   -0.686000
     11          1           0        4.067000    1.614000    1.410000
     12          1           0        3.821000    3.028000   -1.612000
     13          6           0        5.402000   -0.217000   -0.791000
     14          1           0        5.465000   -1.207000   -1.247000
     15          1           0        5.883000   -0.257000    0.193000
     16          1           0        5.955000    0.492000   -1.417000
 ---------------------------------------------------------------------
                    Distance matrix (angstroms):
                    1          2          3          4          5
     1  H    0.000000
     2  C    1.093000   0.000000
     3  C    2.181345   1.528098   0.000000
     4  H    1.756395   1.094218   2.183486   0.000000
     5  H    1.764207   1.092799   2.177210   1.765058   0.000000
     6  H    2.523393   2.168611   1.095629   2.531057   3.082580
     7  Si   3.825914   2.855320   1.860706   3.094291   3.061230
     8  H    2.509497   2.165588   1.095203   3.084740   2.536007
     9  O    5.051640   4.212948   2.926838   4.357641   4.625022
    10  O    4.103107   3.031854   2.796288   2.731207   3.129623
    11  H    4.597128   3.665757   2.800552   4.129522   3.461154
    12  H    5.134917   4.382843   3.142061   4.383514   4.980753
    13  C    5.463916   4.386371   4.165181   4.007811   4.328086
    14  H    5.733941   4.703854   4.793484   4.122218   4.612625
    15  H    5.891773   4.800771   4.552902   4.611033   4.521576
    16  H    6.141008   5.088123   4.621789   4.695397   5.187154
                    6          7          8          9         10
     6  H    0.000000
     7  Si   2.431227   0.000000
     8  H    1.751203   2.425459   0.000000
     9  O    2.937689   1.648597   3.350431   0.000000
    10  O    3.297210   1.642215   3.662322   2.725723   0.000000
    11  H    3.604990   1.485713   2.860124   2.460804   2.563663
    12  H    2.822781   2.257574   3.702125   0.958764   3.042837
    13  C    4.641971   2.692661   4.952933   3.344482   1.408521
    14  H    5.244056   3.586518   5.665319   4.325941   2.036131
    15  H    5.200334   2.963418   5.158163   3.704772   2.077081
    16  H    4.905231   3.019635   5.409015   3.091732   2.077359
                   11         12         13         14         15
    11  H    0.000000
    12  H    3.345504   0.000000
    13  C    3.158985   3.701841   0.000000
    14  H    4.119720   4.557542   1.091790   0.000000
    15  H    2.877427   4.277978   1.096000   1.775056   0.000000
    16  H    3.579854   3.320132   1.095612   1.776401   1.777156
                   16
    16  H    0.000000
 Stoichiometry    C3H10O2Si
 Framework group  C1[X(C3H10O2Si)]
 Deg. of freedom    42
 Full point group                 C1      NOp   1
 Largest Abelian subgroup         C1      NOp   1
 Largest concise Abelian subgroup C1      NOp   1
                         Standard orientation:                         
 ---------------------------------------------------------------------
 Center     Atomic      Atomic             Coordinates (Angstroms)
 Number     Number       Type             X           Y           Z
 ---------------------------------------------------------------------
      1          1           0       -3.323782   -1.066175   -0.341198
      2          6           0       -2.252922   -1.048054   -0.123073
      3          6           0       -1.720712    0.381875   -0.038572
      4          1           0       -1.758236   -1.617232   -0.915939
      5          1           0       -2.097266   -1.584909    0.815952
      6          1           0       -1.891328    0.909419   -0.983554
      7         14           0        0.091441    0.507231    0.364681
      8          1           0       -2.266789    0.943847    0.726580
      9          8           0        0.798946    1.852331   -0.274079
     10          8           0        0.772622   -0.872490   -0.209108
     11          1           0        0.358165    0.638052    1.820389
     12          1           0        0.702730    1.997777   -1.216850
     13          6           0        2.129675   -1.206592   -0.033856
     14          1           0        2.295347   -2.202793   -0.448756
     15          1           0        2.404814   -1.222388    1.026929
     16          1           0        2.787386   -0.498936   -0.550582
 ---------------------------------------------------------------------
 Rotational constants (GHZ):      3.5843948      2.1666643      1.4712122
 Standard basis: def2TZVP (5D, 7F)
 There are   252 symmetry adapted basis functions of A   symmetry.
 Integral buffers will be    131072 words long.
 Raffenetti 2 integral format.
 Two-electron integral symmetry is turned on.
   252 basis functions,   404 primitive gaussians,   282 cartesian basis functions
    29 alpha electrons       29 beta electrons
       nuclear repulsion energy       329.1730685237 Hartrees.
 NAtoms=   16 NActive=   16 NUniq=   16 SFac= 1.00D+00 NAtFMM=   60 NAOKFM=F Big=F
 One-electron integrals computed using PRISM.
   1 Symmetry operations used in ECPInt.
 ECPInt:  NShTT=    5886 NPrTT=   17754 LenC2=    5781 LenP2D=   13916.
 LDataN:  DoStor=T MaxTD1= 6 Len=  172
 NBasis=   252 RedAO= T  NBF=   252
 NBsUse=   252 1.00D-06 NBFU=   252
 Harris functional with IExCor= 1009 diagonalized for initial guess.
 ExpMin= 7.01D-02 ExpMax= 4.48D+04 ExpMxC= 1.53D+03 IAcc=2 IRadAn=         4 AccDes= 0.00D+00
 HarFok:  IExCor= 1009 AccDes= 0.00D+00 IRadAn=         4 IDoV= 1
 ScaDFX=  1.000000  1.000000  1.000000  1.000000
 FoFCou: FMM=F IPFlag=           0 FMFlag=      100000 FMFlg1=           0
         NFxFlg=           0 DoJE=T BraDBF=F KetDBF=T FulRan=T
         Omega=  0.000000  0.000000  1.000000  0.000000  0.000000 ICntrl=     500 IOpCl=  0
         NMat0=    1 NMatS0=    1 NMatT0=    0 NMatD0=    1 NMtDS0=    0 NMtDT0=    0
         I1Cent=           4 NGrid=           0.
 Petite list used in FoFCou.
 Initial guess orbital symmetries:
       Occupied  (A) (A) (A) (A) (A) (A) (A) (A) (A) (A) (A) (A)
                 (A) (A) (A) (A) (A) (A) (A) (A) (A) (A) (A) (A)
                 (A) (A) (A) (A) (A)
       Virtual   (A) (A) (A) (A) (A) (A) (A) (A) (A) (A) (A) (A)
                 (A) (A) (A) (A) (A) (A) (A) (A) (A) (A) (A) (A)
                 (A) (A) (A) (A) (A) (A) (A) (A) (A) (A) (A) (A)
                 (A) (A) (A) (A) (A) (A) (A) (A) (A) (A) (A) (A)
                 (A) (A) (A) (A) (A) (A) (A) (A) (A) (A) (A) (A)
                 (A) (A) (A) (A) (A) (A) (A) (A) (A) (A) (A) (A)
                 (A) (A) (A) (A) (A) (A) (A) (A) (A) (A) (A) (A)
                 (A) (A) (A) (A) (A) (A) (A) (A) (A) (A) (A) (A)
                 (A) (A) (A) (A) (A) (A) (A) (A) (A) (A) (A) (A)
                 (A) (A) (A) (A) (A) (A) (A) (A) (A) (A) (A) (A)
                 (A) (A) (A) (A) (A) (A) (A) (A) (A) (A) (A) (A)
                 (A) (A) (A) (A) (A) (A) (A) (A) (A) (A) (A) (A)
                 (A) (A) (A) (A) (A) (A) (A) (A) (A) (A) (A) (A)
                 (A) (A) (A) (A) (A) (A) (A) (A) (A) (A) (A) (A)
                 (A) (A) (A) (A) (A) (A) (A) (A) (A) (A) (A) (A)
                 (A) (A) (A) (A) (A) (A) (A) (A) (A) (A) (A) (A)
                 (A) (A) (A) (A) (A) (A) (A) (A) (A) (A) (A) (A)
                 (A) (A) (A) (A) (A) (A) (A) (A) (A) (A) (A) (A)
                 (A) (A) (A) (A) (A) (A) (A)
 The electronic state of the initial guess is 1-A.
 Requested convergence on RMS density matrix=1.00D-08 within 128 cycles.
 Requested convergence on MAX density matrix=1.00D-06.
 Requested convergence on             energy=1.00D-06.
 No special actions if energy rises.
 Integral accuracy reduced to 1.0D-05 until final iterations.
 Initial convergence to 1.0D-05 achieved.  Increase integral accuracy.
 SCF Done:  E(RPBE1PBE) =  -560.059941751     A.U. after   12 cycles
             Convg  =    0.7188D-08             -V/T =  2.0033

 **********************************************************************

            Population analysis using the SCF density.

 **********************************************************************

 Orbital symmetries:
       Occupied  (A) (A) (A) (A) (A) (A) (A) (A) (A) (A) (A) (A)
                 (A) (A) (A) (A) (A) (A) (A) (A) (A) (A) (A) (A)
                 (A) (A) (A) (A) (A)
       Virtual   (A) (A) (A) (A) (A) (A) (A) (A) (A) (A) (A) (A)
                 (A) (A) (A) (A) (A) (A) (A) (A) (A) (A) (A) (A)
                 (A) (A) (A) (A) (A) (A) (A) (A) (A) (A) (A) (A)
                 (A) (A) (A) (A) (A) (A) (A) (A) (A) (A) (A) (A)
                 (A) (A) (A) (A) (A) (A) (A) (A) (A) (A) (A) (A)
                 (A) (A) (A) (A) (A) (A) (A) (A) (A) (A) (A) (A)
                 (A) (A) (A) (A) (A) (A) (A) (A) (A) (A) (A) (A)
                 (A) (A) (A) (A) (A) (A) (A) (A) (A) (A) (A) (A)
                 (A) (A) (A) (A) (A) (A) (A) (A) (A) (A) (A) (A)
                 (A) (A) (A) (A) (A) (A) (A) (A) (A) (A) (A) (A)
                 (A) (A) (A) (A) (A) (A) (A) (A) (A) (A) (A) (A)
                 (A) (A) (A) (A) (A) (A) (A) (A) (A) (A) (A) (A)
                 (A) (A) (A) (A) (A) (A) (A) (A) (A) (A) (A) (A)
                 (A) (A) (A) (A) (A) (A) (A) (A) (A) (A) (A) (A)
                 (A) (A) (A) (A) (A) (A) (A) (A) (A) (A) (A) (A)
                 (A) (A) (A) (A) (A) (A) (A) (A) (A) (A) (A) (A)
                 (A) (A) (A) (A) (A) (A) (A) (A) (A) (A) (A) (A)
                 (A) (A) (A) (A) (A) (A) (A) (A) (A) (A) (A) (A)
                 (A) (A) (A) (A) (A) (A) (A)
 The electronic state is 1-A.
 Alpha  occ. eigenvalues --  -66.25390 -19.20268 -19.20046 -10.26477 -10.21053
 Alpha  occ. eigenvalues --  -10.20835  -5.33054  -3.66585  -3.66465  -3.66326
 Alpha  occ. eigenvalues --   -1.04467  -1.02300  -0.77890  -0.70458  -0.63755
 Alpha  occ. eigenvalues --   -0.56732  -0.51208  -0.47042  -0.46785  -0.45492
 Alpha  occ. eigenvalues --   -0.42678  -0.40909  -0.38860  -0.37964  -0.35724
 Alpha  occ. eigenvalues --   -0.35431  -0.31766  -0.30693  -0.29488
 Alpha virt. eigenvalues --    0.03195   0.04376   0.05552   0.08350   0.08729
 Alpha virt. eigenvalues --    0.10662   0.11179   0.11666   0.12233   0.13238
 Alpha virt. eigenvalues --    0.14598   0.14872   0.15639   0.18086   0.19231
 Alpha virt. eigenvalues --    0.20998   0.21736   0.23654   0.24541   0.24970
 Alpha virt. eigenvalues --    0.26580   0.27971   0.29041   0.29712   0.31852
 Alpha virt. eigenvalues --    0.35968   0.36777   0.39099   0.39616   0.41176
 Alpha virt. eigenvalues --    0.42035   0.42952   0.43840   0.44767   0.45396
 Alpha virt. eigenvalues --    0.45853   0.47122   0.47796   0.50440   0.51225
 Alpha virt. eigenvalues --    0.51904   0.54393   0.55105   0.55908   0.57342
 Alpha virt. eigenvalues --    0.60632   0.62539   0.64657   0.66825   0.68885
 Alpha virt. eigenvalues --    0.72142   0.74672   0.77703   0.79014   0.80137
 Alpha virt. eigenvalues --    0.82218   0.83029   0.88149   0.88871   0.92032
 Alpha virt. eigenvalues --    0.93458   0.94719   0.96833   1.00514   1.02748
 Alpha virt. eigenvalues --    1.04505   1.07519   1.08017   1.09299   1.10293
 Alpha virt. eigenvalues --    1.12581   1.13886   1.15684   1.19301   1.21906
 Alpha virt. eigenvalues --    1.23806   1.28442   1.35225   1.35716   1.39198
 Alpha virt. eigenvalues --    1.41701   1.46990   1.49298   1.50437   1.51359
 Alpha virt. eigenvalues --    1.53207   1.55022   1.55980   1.57102   1.59687
 Alpha virt. eigenvalues --    1.59806   1.61207   1.61618   1.63626   1.67138
 Alpha virt. eigenvalues --    1.67539   1.71306   1.75787   1.76974   1.80270
 Alpha virt. eigenvalues --    1.81840   1.85337   1.85483   1.90503   1.93305
 Alpha virt. eigenvalues --    1.94879   1.95159   1.97616   2.02070   2.03436
 Alpha virt. eigenvalues --    2.04609   2.09145   2.10528   2.14506   2.16165
 Alpha virt. eigenvalues --    2.17000   2.18232   2.23177   2.25959   2.30541
 Alpha virt. eigenvalues --    2.31930   2.33399   2.34151   2.35654   2.36303
 Alpha virt. eigenvalues --    2.37369   2.41584   2.46392   2.47403   2.49880
 Alpha virt. eigenvalues --    2.51827   2.52454   2.54388   2.56342   2.57887
 Alpha virt. eigenvalues --    2.59819   2.60848   2.66231   2.67140   2.70004
 Alpha virt. eigenvalues --    2.73506   2.75622   2.80255   2.83257   2.83755
 Alpha virt. eigenvalues --    2.85999   2.91767   2.97756   2.99322   3.02902
 Alpha virt. eigenvalues --    3.04746   3.09537   3.09800   3.12773   3.16910
 Alpha virt. eigenvalues --    3.21774   3.22842   3.23662   3.27961   3.29376
 Alpha virt. eigenvalues --    3.32141   3.34860   3.37180   3.42181   3.42389
 Alpha virt. eigenvalues --    3.45627   3.46010   3.49690   3.52377   3.53855
 Alpha virt. eigenvalues --    3.58479   3.60685   3.62385   3.66071   3.77311
 Alpha virt. eigenvalues --    3.82156   3.87823   3.93300   3.95964   4.04024
 Alpha virt. eigenvalues --    4.18916   4.24803   4.25078   4.35075   4.36871
 Alpha virt. eigenvalues --    4.43279   4.47004   4.53998   4.56717   4.79390
 Alpha virt. eigenvalues --    5.15727   5.16977   5.18113   5.18403   5.28422
 Alpha virt. eigenvalues --    5.29078   5.38755   5.41696   5.45429   5.50035
 Alpha virt. eigenvalues --    5.79841   5.86717   6.03832   6.22417   6.39660
 Alpha virt. eigenvalues --    6.41805   6.53418   6.58889   6.61281   6.66072
 Alpha virt. eigenvalues --    6.67684   6.78431   6.82255   6.98011   7.05907
 Alpha virt. eigenvalues --    7.16730   7.22596  11.89824  22.38082  22.41042
 Alpha virt. eigenvalues --   22.44876  43.60412  43.94102
          Condensed to atoms (all electrons):
              1          2          3          4          5          6
     1  H    0.576549   0.396303  -0.028533  -0.028946  -0.027131  -0.007158
     2  C    0.396303   4.931148   0.276870   0.410332   0.408741  -0.026397
     3  C   -0.028533   0.276870   5.100612  -0.035828  -0.039538   0.370097
     4  H   -0.028946   0.410332  -0.035828   0.540572  -0.019958  -0.003805
     5  H   -0.027131   0.408741  -0.039538  -0.019958   0.558961   0.008117
     6  H   -0.007158  -0.026397   0.370097  -0.003805   0.008117   0.593163
     7  Si   0.005782  -0.014258   0.420493  -0.008643  -0.006902  -0.021717
     8  H   -0.007726  -0.028588   0.388646   0.007261  -0.003644  -0.024907
     9  O   -0.000108   0.004052  -0.044464  -0.000080  -0.000049   0.000383
    10  O    0.000618   0.001378  -0.038230   0.006990  -0.000578   0.000650
    11  H   -0.000272   0.001577  -0.040438   0.000571   0.001703   0.003095
    12  H   -0.000006   0.000236  -0.004016  -0.000021   0.000015   0.002547
    13  C    0.000000  -0.000400   0.002067   0.000070  -0.000014  -0.000080
    14  H   -0.000018   0.000098  -0.000163  -0.000191   0.000006   0.000021
    15  H    0.000000  -0.000345   0.000056   0.000130   0.000164   0.000009
    16  H    0.000009   0.000125   0.000320  -0.000007  -0.000025  -0.000011
              7          8          9         10         11         12
     1  H    0.005782  -0.007726  -0.000108   0.000618  -0.000272  -0.000006
     2  C   -0.014258  -0.028588   0.004052   0.001378   0.001577   0.000236
     3  C    0.420493   0.388646  -0.044464  -0.038230  -0.040438  -0.004016
     4  H   -0.008643   0.007261  -0.000080   0.006990   0.000571  -0.000021
     5  H   -0.006902  -0.003644  -0.000049  -0.000578   0.001703   0.000015
     6  H   -0.021717  -0.024907   0.000383   0.000650   0.003095   0.002547
     7  Si  11.881554  -0.025086   0.479453   0.444069   0.390030  -0.026116
     8  H   -0.025086   0.568739   0.000762   0.001280   0.000353  -0.000122
     9  O    0.479453   0.000762   7.845127  -0.034748  -0.017571   0.299134
    10  O    0.444069   0.001280  -0.034748   7.843087  -0.027224  -0.001154
    11  H    0.390030   0.000353  -0.017571  -0.027224   0.740037   0.004159
    12  H   -0.026116  -0.000122   0.299134  -0.001154   0.004159   0.406146
    13  C   -0.050225  -0.000116  -0.006987   0.264787   0.002494   0.000749
    14  H    0.008703   0.000006   0.000058  -0.041619  -0.000240   0.000022
    15  H   -0.017147   0.000008  -0.000547  -0.043633   0.010114  -0.000046
    16  H   -0.006274  -0.000009   0.006747  -0.041578  -0.002029   0.000332
             13         14         15         16
     1  H    0.000000  -0.000018   0.000000   0.000009
     2  C   -0.000400   0.000098  -0.000345   0.000125
     3  C    0.002067  -0.000163   0.000056   0.000320
     4  H    0.000070  -0.000191   0.000130  -0.000007
     5  H   -0.000014   0.000006   0.000164  -0.000025
     6  H   -0.000080   0.000021   0.000009  -0.000011
     7  Si  -0.050225   0.008703  -0.017147  -0.006274
     8  H   -0.000116   0.000006   0.000008  -0.000009
     9  O   -0.006987   0.000058  -0.000547   0.006747
    10  O    0.264787  -0.041619  -0.043633  -0.041578
    11  H    0.002494  -0.000240   0.010114  -0.002029
    12  H    0.000749   0.000022  -0.000046   0.000332
    13  C    4.766163   0.401717   0.420070   0.410556
    14  H    0.401717   0.568249  -0.030923  -0.033716
    15  H    0.420070  -0.030923   0.591175  -0.047385
    16  H    0.410556  -0.033716  -0.047385   0.593827
 Mulliken atomic charges:
              1
     1  H    0.120637
     2  C   -0.360871
     3  C   -0.327952
     4  H    0.131554
     5  H    0.120134
     6  H    0.105993
     7  Si   0.546283
     8  H    0.123141
     9  O   -0.531163
    10  O   -0.334095
    11  H   -0.066360
    12  H    0.318141
    13  C   -0.210851
    14  H    0.127991
    15  H    0.118299
    16  H    0.119118
 Sum of Mulliken atomic charges =   0.00000
 Mulliken charges with hydrogens summed into heavy atoms:
              1
     2  C    0.011453
     3  C   -0.098817
     7  Si   0.479923
     9  O   -0.213022
    10  O   -0.334095
    13  C    0.154558
 Sum of Mulliken charges with hydrogens summed into heavy atoms =   0.00000
 Electronic spatial extent (au):  <R**2>=            873.3578
 Charge=              0.0000 electrons
 Dipole moment (field-independent basis, Debye):
    X=             -0.0709    Y=             -0.2716    Z=             -1.1030  Tot=              1.1381
 Quadrupole moment (field-independent basis, Debye-Ang):
   XX=            -42.8483   YY=            -47.2923   ZZ=            -43.0563
   XY=             -3.1145   XZ=             -1.0201   YZ=             -3.4562
 Traceless Quadrupole moment (field-independent basis, Debye-Ang):
   XX=              1.5507   YY=             -2.8934   ZZ=              1.3427
   XY=             -3.1145   XZ=             -1.0201   YZ=             -3.4562
 Octapole moment (field-independent basis, Debye-Ang**2):
  XXX=             12.9766  YYY=             -2.3013  ZZZ=             -9.9281  XYY=              1.9709
  XXY=             -3.9280  XXZ=             -1.5996  XZZ=              3.3100  YZZ=              6.3171
  YYZ=             -7.8597  XYZ=             -2.3694
 Hexadecapole moment (field-independent basis, Debye-Ang**3):
 XXXX=           -681.7227 YYYY=           -382.5164 ZZZZ=           -110.5017 XXXY=            -11.2331
 XXXZ=             -4.4981 YYYX=            -13.0780 YYYZ=            -15.2722 ZZZX=             -5.7004
 ZZZY=            -15.0493 XXYY=           -178.3421 XXZZ=           -131.0508 YYZZ=            -67.4847
 XXYZ=             -1.7091 YYXZ=             -7.6461 ZZXY=              3.0491
 N-N= 3.291730685237D+02 E-N=-1.982391264557D+03  KE= 5.582454118974D+02
 1\1\GINC-TARSUS2\SP\RPBE1PBE\def2TZVP\C3H10O2Si1\RENATO\29-Jun-2018\0\
 \#SP PBE1PBE/Def2TZVP geom=connectivity\\Structure: 13\\0,1\H,0,0.,0.,
 0.\C,0,1.093,0.,0.\C,0,1.655,1.421,0.\H,0,1.41,-0.56,-0.885\H,0,1.424,
 -0.557,0.88\H,0,1.308,1.969,-0.883\Si,0,3.513,1.515,0.035\H,0,1.282,1.
 975,0.868\O,0,4.101,2.863,-0.71\O,0,4.043,0.138,-0.686\H,0,4.067,1.614
 ,1.41\H,0,3.821,3.028,-1.612\C,0,5.402,-0.217,-0.791\H,0,5.465,-1.207,
 -1.247\H,0,5.883,-0.257,0.193\H,0,5.955,0.492,-1.417\\Version=EM64L-G0
 9RevC.01\State=1-A\HF=-560.0599418\RMSD=7.188e-09\Dipole=-0.1157104,-0
 .0980221,-0.4213185\Quadrupole=0.7570108,-1.9898087,1.2327979,-2.81711
 13,-0.8087997,-2.0976584\PG=C01 [X(C3H10O2Si1)]\\@


 HAPPINESS IS NOT HAVING WHAT YOU WANT --
 HAPPINESS IS WANTING WHAT YOU HAVE!

              -- FROM MRS. SEVERN'S DESK
 Job cpu time:  0 days  0 hours  8 minutes 47.2 seconds.
 File lengths (MBytes):  RWF=     40 Int=      0 D2E=      0 Chk=      3 Scr=      1
 Normal termination of Gaussian 09 at Fri Jun 29 10:39:03 2018.
