 Entering Gaussian System, Link 0=g09
 Initial command:
 /usr/local/gaussian09/g09/l1.exe /scratch/renato/Gau-27004.inp -scrdir=/scratch/renato/
 Entering Link 1 = /usr/local/gaussian09/g09/l1.exe PID=     27006.
  
 Copyright (c) 1988,1990,1992,1993,1995,1998,2003,2009,2011,
            Gaussian, Inc.  All Rights Reserved.
  
 This is part of the Gaussian(R) 09 program.  It is based on
 the Gaussian(R) 03 system (copyright 2003, Gaussian, Inc.),
 the Gaussian(R) 98 system (copyright 1998, Gaussian, Inc.),
 the Gaussian(R) 94 system (copyright 1995, Gaussian, Inc.),
 the Gaussian 92(TM) system (copyright 1992, Gaussian, Inc.),
 the Gaussian 90(TM) system (copyright 1990, Gaussian, Inc.),
 the Gaussian 88(TM) system (copyright 1988, Gaussian, Inc.),
 the Gaussian 86(TM) system (copyright 1986, Carnegie Mellon
 University), and the Gaussian 82(TM) system (copyright 1983,
 Carnegie Mellon University). Gaussian is a federally registered
 trademark of Gaussian, Inc.
  
 This software contains proprietary and confidential information,
 including trade secrets, belonging to Gaussian, Inc.
  
 This software is provided under written license and may be
 used, copied, transmitted, or stored only in accord with that
 written license.
  
 The following legend is applicable only to US Government
 contracts under FAR:
  
                    RESTRICTED RIGHTS LEGEND
  
 Use, reproduction and disclosure by the US Government is
 subject to restrictions as set forth in subparagraphs (a)
 and (c) of the Commercial Computer Software - Restricted
 Rights clause in FAR 52.227-19.
  
 Gaussian, Inc.
 340 Quinnipiac St., Bldg. 40, Wallingford CT 06492
  
  
 ---------------------------------------------------------------
 Warning -- This program may not be used in any manner that
 competes with the business of Gaussian, Inc. or will provide
 assistance to any competitor of Gaussian, Inc.  The licensee
 of this program is prohibited from giving any competitor of
 Gaussian, Inc. access to this program.  By using this program,
 the user acknowledges that Gaussian, Inc. is engaged in the
 business of creating and licensing software in the field of
 computational chemistry and represents and warrants to the
 licensee that it is not a competitor of Gaussian, Inc. and that
 it will not use this program in any manner prohibited above.
 ---------------------------------------------------------------
  

 Cite this work as:
 Gaussian 09, Revision C.01,
 M. J. Frisch, G. W. Trucks, H. B. Schlegel, G. E. Scuseria, 
 M. A. Robb, J. R. Cheeseman, G. Scalmani, V. Barone, B. Mennucci, 
 G. A. Petersson, H. Nakatsuji, M. Caricato, X. Li, H. P. Hratchian, 
 A. F. Izmaylov, J. Bloino, G. Zheng, J. L. Sonnenberg, M. Hada, 
 M. Ehara, K. Toyota, R. Fukuda, J. Hasegawa, M. Ishida, T. Nakajima, 
 Y. Honda, O. Kitao, H. Nakai, T. Vreven, J. A. Montgomery, Jr., 
 J. E. Peralta, F. Ogliaro, M. Bearpark, J. J. Heyd, E. Brothers, 
 K. N. Kudin, V. N. Staroverov, T. Keith, R. Kobayashi, J. Normand, 
 K. Raghavachari, A. Rendell, J. C. Burant, S. S. Iyengar, J. Tomasi, 
 M. Cossi, N. Rega, J. M. Millam, M. Klene, J. E. Knox, J. B. Cross, 
 V. Bakken, C. Adamo, J. Jaramillo, R. Gomperts, R. E. Stratmann, 
 O. Yazyev, A. J. Austin, R. Cammi, C. Pomelli, J. W. Ochterski, 
 R. L. Martin, K. Morokuma, V. G. Zakrzewski, G. A. Voth, 
 P. Salvador, J. J. Dannenberg, S. Dapprich, A. D. Daniels, 
 O. Farkas, J. B. Foresman, J. V. Ortiz, J. Cioslowski, 
 and D. J. Fox, Gaussian, Inc., Wallingford CT, 2010.
 
 ******************************************
 Gaussian 09:  EM64L-G09RevC.01 23-Sep-2011
                29-Jun-2018 
 ******************************************
 %nproc=2
 Will use up to    2 processors via shared memory.
 %mem=256MB
 %RWF=d23.rwf
 %chk=d2323
 %NoSave
 --------------------------------------
 #SP PBE1PBE/Def2TZVP geom=connectivity
 --------------------------------------
 1/38=1,57=2/1;
 2/12=2,17=6,18=5,40=1/2;
 3/5=44,7=101,11=2,16=1,25=1,30=1,74=-13/1,2,3;
 4//1;
 5/5=2,38=5/2;
 6/7=2,8=2,9=2,10=2,28=1/1;
 99/5=1,9=1/99;
 -------------
 Structure: 23
 -------------
 Charge =  0 Multiplicity = 1
 Symbolic Z-Matrix:
 H                     0.        0.        0. 
 C                     1.093     0.        0. 
 C                     1.655     1.421     0. 
 H                     1.41     -0.56     -0.885 
 H                     1.424    -0.557     0.88 
 H                     1.308     1.969    -0.883 
 Si                    3.513     1.515     0.035 
 H                     1.282     1.975     0.868 
 O                     4.083     3.042    -0.214 
 O                     4.035     0.472    -1.122 
 H                     4.092     1.144     1.352 
 H                     3.786     3.503    -1. 
 C                     5.392     0.187    -1.363 
 H                     5.45     -0.587    -2.131 
 H                     5.892    -0.181    -0.46 
 H                     5.931     1.072    -1.718 
 
                          Input orientation:                          
 ---------------------------------------------------------------------
 Center     Atomic      Atomic             Coordinates (Angstroms)
 Number     Number       Type             X           Y           Z
 ---------------------------------------------------------------------
      1          1           0        0.000000    0.000000    0.000000
      2          6           0        1.093000    0.000000    0.000000
      3          6           0        1.655000    1.421000    0.000000
      4          1           0        1.410000   -0.560000   -0.885000
      5          1           0        1.424000   -0.557000    0.880000
      6          1           0        1.308000    1.969000   -0.883000
      7         14           0        3.513000    1.515000    0.035000
      8          1           0        1.282000    1.975000    0.868000
      9          8           0        4.083000    3.042000   -0.214000
     10          8           0        4.035000    0.472000   -1.122000
     11          1           0        4.092000    1.144000    1.352000
     12          1           0        3.786000    3.503000   -1.000000
     13          6           0        5.392000    0.187000   -1.363000
     14          1           0        5.450000   -0.587000   -2.131000
     15          1           0        5.892000   -0.181000   -0.460000
     16          1           0        5.931000    1.072000   -1.718000
 ---------------------------------------------------------------------
                    Distance matrix (angstroms):
                    1          2          3          4          5
     1  H    0.000000
     2  C    1.093000   0.000000
     3  C    2.181345   1.528098   0.000000
     4  H    1.756395   1.094218   2.183486   0.000000
     5  H    1.764207   1.092799   2.177210   1.765058   0.000000
     6  H    2.523393   2.168611   1.095629   2.531057   3.082580
     7  Si   3.825914   2.855320   1.860706   3.094291   3.061230
     8  H    2.509497   2.165588   1.095203   3.084740   2.536007
     9  O    5.096121   4.270791   2.927221   4.535369   4.606508
    10  O    4.214605   3.183871   2.797121   2.830516   3.447342
    11  H    4.458823   3.482907   2.800643   3.885989   3.199126
    12  H    5.254028   4.530260   3.142592   4.708139   5.059352
    13  C    5.564746   4.513772   4.164816   4.079561   4.618399
    14  H    5.881176   4.885609   4.793250   4.227865   5.027494
    15  H    5.912700   4.824392   4.553040   4.518029   4.679744
    16  H    6.267174   5.244707   4.621418   4.878192   5.451265
                    6          7          8          9         10
     6  H    0.000000
     7  Si   2.431227   0.000000
     8  H    1.751203   2.425459   0.000000
     9  O    3.049511   1.648827   3.186662   0.000000
    10  O    3.120042   1.642858   3.714582   2.726109   0.000000
    11  H    3.664220   1.485722   2.970003   2.460659   2.564276
    12  H    2.916733   2.257853   3.477675   0.958398   3.043657
    13  C    4.481627   2.692328   5.006636   3.344354   1.407393
    14  H    5.024620   3.586353   5.738473   4.325878   2.035138
    15  H    5.080796   2.963289   5.259660   3.704150   2.076801
    16  H    4.782673   3.019268   5.395925   3.091605   2.076062
                   11         12         13         14         15
    11  H    0.000000
    12  H    3.345209   0.000000
    13  C    3.158651   3.702278   0.000000
    14  H    4.119686   4.558087   1.091908   0.000000
    15  H    2.877320   4.277697   1.095825   1.775511   0.000000
    16  H    3.579386   3.320589   1.095341   1.776010   1.775977
                   16
    16  H    0.000000
 Stoichiometry    C3H10O2Si
 Framework group  C1[X(C3H10O2Si)]
 Deg. of freedom    42
 Full point group                 C1      NOp   1
 Largest Abelian subgroup         C1      NOp   1
 Largest concise Abelian subgroup C1      NOp   1
                         Standard orientation:                         
 ---------------------------------------------------------------------
 Center     Atomic      Atomic             Coordinates (Angstroms)
 Number     Number       Type             X           Y           Z
 ---------------------------------------------------------------------
      1          1           0       -3.395752   -0.988426   -0.315928
      2          6           0       -2.351025   -0.990322    0.005304
      3          6           0       -1.693110    0.371322   -0.214141
      4          1           0       -1.846606   -1.778926   -0.561248
      5          1           0       -2.329561   -1.275372    1.060053
      6          1           0       -1.729787    0.646919   -1.273907
      7         14           0        0.080971    0.468165    0.338566
      8          1           0       -2.246782    1.149447    0.321992
      9          8           0        0.825596    1.860804   -0.135481
     10          8           0        0.816825   -0.861113   -0.286352
     11          1           0        0.232333    0.485013    1.816462
     12          1           0        0.802027    2.080405   -1.068082
     13          6           0        2.157485   -1.205127   -0.031319
     14          1           0        2.363241   -2.165297   -0.508813
     15          1           0        2.350071   -1.302710    1.043028
     16          1           0        2.847755   -0.458129   -0.437880
 ---------------------------------------------------------------------
 Rotational constants (GHZ):      3.6732844      2.0913950      1.4442793
 Standard basis: def2TZVP (5D, 7F)
 There are   252 symmetry adapted basis functions of A   symmetry.
 Integral buffers will be    131072 words long.
 Raffenetti 2 integral format.
 Two-electron integral symmetry is turned on.
   252 basis functions,   404 primitive gaussians,   282 cartesian basis functions
    29 alpha electrons       29 beta electrons
       nuclear repulsion energy       328.2933625116 Hartrees.
 NAtoms=   16 NActive=   16 NUniq=   16 SFac= 1.00D+00 NAtFMM=   60 NAOKFM=F Big=F
 One-electron integrals computed using PRISM.
   1 Symmetry operations used in ECPInt.
 ECPInt:  NShTT=    5886 NPrTT=   17754 LenC2=    5773 LenP2D=   13869.
 LDataN:  DoStor=T MaxTD1= 6 Len=  172
 NBasis=   252 RedAO= T  NBF=   252
 NBsUse=   252 1.00D-06 NBFU=   252
 Harris functional with IExCor= 1009 diagonalized for initial guess.
 ExpMin= 7.01D-02 ExpMax= 4.48D+04 ExpMxC= 1.53D+03 IAcc=2 IRadAn=         4 AccDes= 0.00D+00
 HarFok:  IExCor= 1009 AccDes= 0.00D+00 IRadAn=         4 IDoV= 1
 ScaDFX=  1.000000  1.000000  1.000000  1.000000
 FoFCou: FMM=F IPFlag=           0 FMFlag=      100000 FMFlg1=           0
         NFxFlg=           0 DoJE=T BraDBF=F KetDBF=T FulRan=T
         Omega=  0.000000  0.000000  1.000000  0.000000  0.000000 ICntrl=     500 IOpCl=  0
         NMat0=    1 NMatS0=    1 NMatT0=    0 NMatD0=    1 NMtDS0=    0 NMtDT0=    0
         I1Cent=           4 NGrid=           0.
 Petite list used in FoFCou.
 Initial guess orbital symmetries:
       Occupied  (A) (A) (A) (A) (A) (A) (A) (A) (A) (A) (A) (A)
                 (A) (A) (A) (A) (A) (A) (A) (A) (A) (A) (A) (A)
                 (A) (A) (A) (A) (A)
       Virtual   (A) (A) (A) (A) (A) (A) (A) (A) (A) (A) (A) (A)
                 (A) (A) (A) (A) (A) (A) (A) (A) (A) (A) (A) (A)
                 (A) (A) (A) (A) (A) (A) (A) (A) (A) (A) (A) (A)
                 (A) (A) (A) (A) (A) (A) (A) (A) (A) (A) (A) (A)
                 (A) (A) (A) (A) (A) (A) (A) (A) (A) (A) (A) (A)
                 (A) (A) (A) (A) (A) (A) (A) (A) (A) (A) (A) (A)
                 (A) (A) (A) (A) (A) (A) (A) (A) (A) (A) (A) (A)
                 (A) (A) (A) (A) (A) (A) (A) (A) (A) (A) (A) (A)
                 (A) (A) (A) (A) (A) (A) (A) (A) (A) (A) (A) (A)
                 (A) (A) (A) (A) (A) (A) (A) (A) (A) (A) (A) (A)
                 (A) (A) (A) (A) (A) (A) (A) (A) (A) (A) (A) (A)
                 (A) (A) (A) (A) (A) (A) (A) (A) (A) (A) (A) (A)
                 (A) (A) (A) (A) (A) (A) (A) (A) (A) (A) (A) (A)
                 (A) (A) (A) (A) (A) (A) (A) (A) (A) (A) (A) (A)
                 (A) (A) (A) (A) (A) (A) (A) (A) (A) (A) (A) (A)
                 (A) (A) (A) (A) (A) (A) (A) (A) (A) (A) (A) (A)
                 (A) (A) (A) (A) (A) (A) (A) (A) (A) (A) (A) (A)
                 (A) (A) (A) (A) (A) (A) (A) (A) (A) (A) (A) (A)
                 (A) (A) (A) (A) (A) (A) (A)
 The electronic state of the initial guess is 1-A.
 Requested convergence on RMS density matrix=1.00D-08 within 128 cycles.
 Requested convergence on MAX density matrix=1.00D-06.
 Requested convergence on             energy=1.00D-06.
 No special actions if energy rises.
 Integral accuracy reduced to 1.0D-05 until final iterations.
 Initial convergence to 1.0D-05 achieved.  Increase integral accuracy.
 SCF Done:  E(RPBE1PBE) =  -560.061238035     A.U. after   12 cycles
             Convg  =    0.7507D-08             -V/T =  2.0033

 **********************************************************************

            Population analysis using the SCF density.

 **********************************************************************

 Orbital symmetries:
       Occupied  (A) (A) (A) (A) (A) (A) (A) (A) (A) (A) (A) (A)
                 (A) (A) (A) (A) (A) (A) (A) (A) (A) (A) (A) (A)
                 (A) (A) (A) (A) (A)
       Virtual   (A) (A) (A) (A) (A) (A) (A) (A) (A) (A) (A) (A)
                 (A) (A) (A) (A) (A) (A) (A) (A) (A) (A) (A) (A)
                 (A) (A) (A) (A) (A) (A) (A) (A) (A) (A) (A) (A)
                 (A) (A) (A) (A) (A) (A) (A) (A) (A) (A) (A) (A)
                 (A) (A) (A) (A) (A) (A) (A) (A) (A) (A) (A) (A)
                 (A) (A) (A) (A) (A) (A) (A) (A) (A) (A) (A) (A)
                 (A) (A) (A) (A) (A) (A) (A) (A) (A) (A) (A) (A)
                 (A) (A) (A) (A) (A) (A) (A) (A) (A) (A) (A) (A)
                 (A) (A) (A) (A) (A) (A) (A) (A) (A) (A) (A) (A)
                 (A) (A) (A) (A) (A) (A) (A) (A) (A) (A) (A) (A)
                 (A) (A) (A) (A) (A) (A) (A) (A) (A) (A) (A) (A)
                 (A) (A) (A) (A) (A) (A) (A) (A) (A) (A) (A) (A)
                 (A) (A) (A) (A) (A) (A) (A) (A) (A) (A) (A) (A)
                 (A) (A) (A) (A) (A) (A) (A) (A) (A) (A) (A) (A)
                 (A) (A) (A) (A) (A) (A) (A) (A) (A) (A) (A) (A)
                 (A) (A) (A) (A) (A) (A) (A) (A) (A) (A) (A) (A)
                 (A) (A) (A) (A) (A) (A) (A) (A) (A) (A) (A) (A)
                 (A) (A) (A) (A) (A) (A) (A) (A) (A) (A) (A) (A)
                 (A) (A) (A) (A) (A) (A) (A)
 The electronic state is 1-A.
 Alpha  occ. eigenvalues --  -66.25401 -19.20291 -19.20039 -10.26451 -10.21190
 Alpha  occ. eigenvalues --  -10.20882  -5.33060  -3.66590  -3.66470  -3.66334
 Alpha  occ. eigenvalues --   -1.04473  -1.02316  -0.77957  -0.70470  -0.63790
 Alpha  occ. eigenvalues --   -0.56782  -0.51207  -0.46988  -0.46728  -0.45542
 Alpha  occ. eigenvalues --   -0.43004  -0.40918  -0.38691  -0.38012  -0.35804
 Alpha  occ. eigenvalues --   -0.35534  -0.31884  -0.30645  -0.29492
 Alpha virt. eigenvalues --    0.03109   0.04650   0.05524   0.08325   0.09122
 Alpha virt. eigenvalues --    0.10456   0.11195   0.11560   0.12563   0.13225
 Alpha virt. eigenvalues --    0.14902   0.15044   0.15770   0.17364   0.18172
 Alpha virt. eigenvalues --    0.20788   0.21845   0.23464   0.24562   0.25066
 Alpha virt. eigenvalues --    0.26747   0.27691   0.28638   0.29771   0.31730
 Alpha virt. eigenvalues --    0.35251   0.37034   0.38563   0.39704   0.41607
 Alpha virt. eigenvalues --    0.42323   0.42843   0.43841   0.44820   0.45301
 Alpha virt. eigenvalues --    0.46362   0.47289   0.47725   0.49601   0.51110
 Alpha virt. eigenvalues --    0.52639   0.54316   0.55058   0.56178   0.57060
 Alpha virt. eigenvalues --    0.61132   0.63362   0.65334   0.66520   0.69115
 Alpha virt. eigenvalues --    0.72458   0.74658   0.76584   0.77726   0.79083
 Alpha virt. eigenvalues --    0.82527   0.83727   0.87939   0.89279   0.91359
 Alpha virt. eigenvalues --    0.93055   0.95207   0.97760   0.99745   1.02605
 Alpha virt. eigenvalues --    1.04115   1.06529   1.07866   1.08227   1.10246
 Alpha virt. eigenvalues --    1.13434   1.14877   1.15662   1.20506   1.21193
 Alpha virt. eigenvalues --    1.23239   1.28125   1.34599   1.35537   1.39195
 Alpha virt. eigenvalues --    1.42330   1.47349   1.48596   1.51177   1.51470
 Alpha virt. eigenvalues --    1.53331   1.55593   1.55987   1.56641   1.58563
 Alpha virt. eigenvalues --    1.58870   1.61878   1.62345   1.63671   1.67518
 Alpha virt. eigenvalues --    1.68466   1.71490   1.74137   1.77779   1.80642
 Alpha virt. eigenvalues --    1.81185   1.83225   1.85899   1.90098   1.92884
 Alpha virt. eigenvalues --    1.94242   1.96004   1.98505   2.02211   2.03197
 Alpha virt. eigenvalues --    2.03625   2.09788   2.10160   2.14019   2.16090
 Alpha virt. eigenvalues --    2.17130   2.19387   2.23266   2.25702   2.30952
 Alpha virt. eigenvalues --    2.32892   2.33687   2.34604   2.34989   2.35627
 Alpha virt. eigenvalues --    2.36498   2.41073   2.45580   2.46946   2.49093
 Alpha virt. eigenvalues --    2.51605   2.53105   2.54670   2.56054   2.58511
 Alpha virt. eigenvalues --    2.59690   2.60632   2.66398   2.67765   2.71571
 Alpha virt. eigenvalues --    2.72966   2.75973   2.80958   2.81984   2.82948
 Alpha virt. eigenvalues --    2.84058   2.91809   2.97859   3.01040   3.03499
 Alpha virt. eigenvalues --    3.04923   3.09002   3.10350   3.12132   3.15927
 Alpha virt. eigenvalues --    3.21823   3.22426   3.24370   3.26711   3.29662
 Alpha virt. eigenvalues --    3.32015   3.33420   3.36992   3.40006   3.44047
 Alpha virt. eigenvalues --    3.44529   3.45409   3.49375   3.53390   3.53912
 Alpha virt. eigenvalues --    3.58693   3.59904   3.62771   3.66409   3.77013
 Alpha virt. eigenvalues --    3.81702   3.88009   3.92732   3.96164   4.04199
 Alpha virt. eigenvalues --    4.19128   4.24496   4.25094   4.34536   4.36813
 Alpha virt. eigenvalues --    4.42575   4.46944   4.53613   4.57002   4.79612
 Alpha virt. eigenvalues --    5.15721   5.17026   5.18225   5.18548   5.28318
 Alpha virt. eigenvalues --    5.29289   5.38658   5.41803   5.45487   5.49791
 Alpha virt. eigenvalues --    5.79998   5.86829   6.03315   6.22501   6.38954
 Alpha virt. eigenvalues --    6.41923   6.53377   6.59007   6.60922   6.66200
 Alpha virt. eigenvalues --    6.68156   6.78629   6.82589   6.97633   7.06061
 Alpha virt. eigenvalues --    7.15898   7.22711  11.90204  22.37707  22.40723
 Alpha virt. eigenvalues --   22.45135  43.61132  43.92630
          Condensed to atoms (all electrons):
              1          2          3          4          5          6
     1  H    0.570394   0.396434  -0.027509  -0.026782  -0.026760  -0.006955
     2  C    0.396434   4.963432   0.259478   0.409737   0.407993  -0.024242
     3  C   -0.027509   0.259478   5.097356  -0.035840  -0.039876   0.370720
     4  H   -0.026782   0.409737  -0.035840   0.535475  -0.021673  -0.003676
     5  H   -0.026760   0.407993  -0.039876  -0.021673   0.559269   0.008025
     6  H   -0.006955  -0.024242   0.370720  -0.003676   0.008025   0.589542
     7  Si   0.005953  -0.012670   0.422845  -0.008448  -0.007234  -0.020051
     8  H   -0.007327  -0.030577   0.390611   0.007477  -0.003626  -0.026238
     9  O   -0.000107   0.004508  -0.041959  -0.000023  -0.000050   0.000010
    10  O    0.000202   0.000493  -0.037292   0.007932  -0.000889   0.000584
    11  H   -0.000317   0.000213  -0.039888   0.000677   0.002890   0.003139
    12  H   -0.000003   0.000189  -0.003477  -0.000013   0.000011   0.002037
    13  C   -0.000001   0.000044   0.001259  -0.000101   0.000037   0.000054
    14  H   -0.000010   0.000209  -0.000288  -0.000233   0.000002   0.000028
    15  H    0.000000  -0.000358   0.000155   0.000094   0.000151   0.000026
    16  H    0.000005  -0.000012   0.000525   0.000062  -0.000021  -0.000029
              7          8          9         10         11         12
     1  H    0.005953  -0.007327  -0.000107   0.000202  -0.000317  -0.000003
     2  C   -0.012670  -0.030577   0.004508   0.000493   0.000213   0.000189
     3  C    0.422845   0.390611  -0.041959  -0.037292  -0.039888  -0.003477
     4  H   -0.008448   0.007477  -0.000023   0.007932   0.000677  -0.000013
     5  H   -0.007234  -0.003626  -0.000050  -0.000889   0.002890   0.000011
     6  H   -0.020051  -0.026238   0.000010   0.000584   0.003139   0.002037
     7  Si  11.882351  -0.027312   0.476495   0.448164   0.387059  -0.027393
     8  H   -0.027312   0.572295  -0.000068   0.001428   0.001123  -0.000079
     9  O    0.476495  -0.000068   7.845761  -0.033278  -0.017219   0.299468
    10  O    0.448164   0.001428  -0.033278   7.843302  -0.027413  -0.001055
    11  H    0.387059   0.001123  -0.017219  -0.027413   0.740845   0.004097
    12  H   -0.027393  -0.000079   0.299468  -0.001055   0.004097   0.406307
    13  C   -0.050566  -0.000109  -0.006970   0.263778   0.002803   0.000845
    14  H    0.008187   0.000003   0.000066  -0.040905  -0.000268   0.000029
    15  H   -0.017149   0.000008  -0.000590  -0.043367   0.010328  -0.000068
    16  H   -0.006076  -0.000002   0.006765  -0.043099  -0.002035   0.000327
             13         14         15         16
     1  H   -0.000001  -0.000010   0.000000   0.000005
     2  C    0.000044   0.000209  -0.000358  -0.000012
     3  C    0.001259  -0.000288   0.000155   0.000525
     4  H   -0.000101  -0.000233   0.000094   0.000062
     5  H    0.000037   0.000002   0.000151  -0.000021
     6  H    0.000054   0.000028   0.000026  -0.000029
     7  Si  -0.050566   0.008187  -0.017149  -0.006076
     8  H   -0.000109   0.000003   0.000008  -0.000002
     9  O   -0.006970   0.000066  -0.000590   0.006765
    10  O    0.263778  -0.040905  -0.043367  -0.043099
    11  H    0.002803  -0.000268   0.010328  -0.002035
    12  H    0.000845   0.000029  -0.000068   0.000327
    13  C    4.766157   0.401710   0.419092   0.412078
    14  H    0.401710   0.567839  -0.030834  -0.033598
    15  H    0.419092  -0.030834   0.592171  -0.047711
    16  H    0.412078  -0.033598  -0.047711   0.593620
 Mulliken atomic charges:
              1
     1  H    0.122783
     2  C   -0.374871
     3  C   -0.316819
     4  H    0.135335
     5  H    0.121750
     6  H    0.107024
     7  Si   0.545845
     8  H    0.122394
     9  O   -0.532811
    10  O   -0.338583
    11  H   -0.066033
    12  H    0.318779
    13  C   -0.210109
    14  H    0.128064
    15  H    0.118051
    16  H    0.119202
 Sum of Mulliken atomic charges =   0.00000
 Mulliken charges with hydrogens summed into heavy atoms:
              1
     2  C    0.004997
     3  C   -0.087401
     7  Si   0.479812
     9  O   -0.214032
    10  O   -0.338583
    13  C    0.155208
 Sum of Mulliken charges with hydrogens summed into heavy atoms =   0.00000
 Electronic spatial extent (au):  <R**2>=            885.2644
 Charge=              0.0000 electrons
 Dipole moment (field-independent basis, Debye):
    X=             -0.0117    Y=             -0.1714    Z=             -1.1274  Tot=              1.1404
 Quadrupole moment (field-independent basis, Debye-Ang):
   XX=            -42.5474   YY=            -46.6680   ZZ=            -43.7168
   XY=             -2.6931   XZ=             -1.0708   YZ=             -3.7949
 Traceless Quadrupole moment (field-independent basis, Debye-Ang):
   XX=              1.7634   YY=             -2.3573   ZZ=              0.5939
   XY=             -2.6931   XZ=             -1.0708   YZ=             -3.7949
 Octapole moment (field-independent basis, Debye-Ang**2):
  XXX=             13.4510  YYY=             -0.3630  ZZZ=             -8.5448  XYY=              2.9259
  XXY=             -3.4076  XXZ=             -2.2427  XZZ=              3.6048  YZZ=              5.7965
  YYZ=             -8.9370  XYZ=             -3.4345
 Hexadecapole moment (field-independent basis, Debye-Ang**3):
 XXXX=           -705.0642 YYYY=           -368.1891 ZZZZ=           -110.2651 XXXY=            -10.9566
 XXXZ=             -3.8169 YYYX=            -10.1996 YYYZ=            -15.5693 ZZZX=             -4.1651
 ZZZY=            -11.7863 XXYY=           -179.0611 XXZZ=           -135.4505 YYZZ=            -67.6845
 XXYZ=             -1.5339 YYXZ=             -9.5371 ZZXY=              3.8229
 N-N= 3.282933625116D+02 E-N=-1.980613193874D+03  KE= 5.582396673939D+02
 1\1\GINC-TARSUS2\SP\RPBE1PBE\def2TZVP\C3H10O2Si1\RENATO\29-Jun-2018\0\
 \#SP PBE1PBE/Def2TZVP geom=connectivity\\Structure: 23\\0,1\H,0,0.,0.,
 0.\C,0,1.093,0.,0.\C,0,1.655,1.421,0.\H,0,1.41,-0.56,-0.885\H,0,1.424,
 -0.557,0.88\H,0,1.308,1.969,-0.883\Si,0,3.513,1.515,0.035\H,0,1.282,1.
 975,0.868\O,0,4.083,3.042,-0.214\O,0,4.035,0.472,-1.122\H,0,4.092,1.14
 4,1.352\H,0,3.786,3.503,-1.\C,0,5.392,0.187,-1.363\H,0,5.45,-0.587,-2.
 131\H,0,5.892,-0.181,-0.46\H,0,5.931,1.072,-1.718\\Version=EM64L-G09Re
 vC.01\State=1-A\HF=-560.061238\RMSD=7.507e-09\Dipole=-0.1346583,0.0549
 824,-0.4244451\Quadrupole=0.7981358,-0.3947934,-0.4033424,-2.371015,-1
 .6391296,-2.5118572\PG=C01 [X(C3H10O2Si1)]\\@


 ... SUBJECTS WHICH DISCLOSE THEIR FULL POWER, MEANING AND BEAUTY AS SOON
 AS THEY ARE PRESENTED TO THE MIND HAVE VERY LITTLE OF THOSE QUALITIES
 TO DISCLOSE.
                           -- CHARLES DUTTON (1882)
 Job cpu time:  0 days  0 hours  9 minutes  1.0 seconds.
 File lengths (MBytes):  RWF=     40 Int=      0 D2E=      0 Chk=      3 Scr=      1
 Normal termination of Gaussian 09 at Fri Jun 29 11:25:12 2018.
