 Entering Gaussian System, Link 0=g09
 Initial command:
 /usr/local/gaussian09/g09/l1.exe /scratch/renato/Gau-27123.inp -scrdir=/scratch/renato/
 Entering Link 1 = /usr/local/gaussian09/g09/l1.exe PID=     27125.
  
 Copyright (c) 1988,1990,1992,1993,1995,1998,2003,2009,2011,
            Gaussian, Inc.  All Rights Reserved.
  
 This is part of the Gaussian(R) 09 program.  It is based on
 the Gaussian(R) 03 system (copyright 2003, Gaussian, Inc.),
 the Gaussian(R) 98 system (copyright 1998, Gaussian, Inc.),
 the Gaussian(R) 94 system (copyright 1995, Gaussian, Inc.),
 the Gaussian 92(TM) system (copyright 1992, Gaussian, Inc.),
 the Gaussian 90(TM) system (copyright 1990, Gaussian, Inc.),
 the Gaussian 88(TM) system (copyright 1988, Gaussian, Inc.),
 the Gaussian 86(TM) system (copyright 1986, Carnegie Mellon
 University), and the Gaussian 82(TM) system (copyright 1983,
 Carnegie Mellon University). Gaussian is a federally registered
 trademark of Gaussian, Inc.
  
 This software contains proprietary and confidential information,
 including trade secrets, belonging to Gaussian, Inc.
  
 This software is provided under written license and may be
 used, copied, transmitted, or stored only in accord with that
 written license.
  
 The following legend is applicable only to US Government
 contracts under FAR:
  
                    RESTRICTED RIGHTS LEGEND
  
 Use, reproduction and disclosure by the US Government is
 subject to restrictions as set forth in subparagraphs (a)
 and (c) of the Commercial Computer Software - Restricted
 Rights clause in FAR 52.227-19.
  
 Gaussian, Inc.
 340 Quinnipiac St., Bldg. 40, Wallingford CT 06492
  
  
 ---------------------------------------------------------------
 Warning -- This program may not be used in any manner that
 competes with the business of Gaussian, Inc. or will provide
 assistance to any competitor of Gaussian, Inc.  The licensee
 of this program is prohibited from giving any competitor of
 Gaussian, Inc. access to this program.  By using this program,
 the user acknowledges that Gaussian, Inc. is engaged in the
 business of creating and licensing software in the field of
 computational chemistry and represents and warrants to the
 licensee that it is not a competitor of Gaussian, Inc. and that
 it will not use this program in any manner prohibited above.
 ---------------------------------------------------------------
  

 Cite this work as:
 Gaussian 09, Revision C.01,
 M. J. Frisch, G. W. Trucks, H. B. Schlegel, G. E. Scuseria, 
 M. A. Robb, J. R. Cheeseman, G. Scalmani, V. Barone, B. Mennucci, 
 G. A. Petersson, H. Nakatsuji, M. Caricato, X. Li, H. P. Hratchian, 
 A. F. Izmaylov, J. Bloino, G. Zheng, J. L. Sonnenberg, M. Hada, 
 M. Ehara, K. Toyota, R. Fukuda, J. Hasegawa, M. Ishida, T. Nakajima, 
 Y. Honda, O. Kitao, H. Nakai, T. Vreven, J. A. Montgomery, Jr., 
 J. E. Peralta, F. Ogliaro, M. Bearpark, J. J. Heyd, E. Brothers, 
 K. N. Kudin, V. N. Staroverov, T. Keith, R. Kobayashi, J. Normand, 
 K. Raghavachari, A. Rendell, J. C. Burant, S. S. Iyengar, J. Tomasi, 
 M. Cossi, N. Rega, J. M. Millam, M. Klene, J. E. Knox, J. B. Cross, 
 V. Bakken, C. Adamo, J. Jaramillo, R. Gomperts, R. E. Stratmann, 
 O. Yazyev, A. J. Austin, R. Cammi, C. Pomelli, J. W. Ochterski, 
 R. L. Martin, K. Morokuma, V. G. Zakrzewski, G. A. Voth, 
 P. Salvador, J. J. Dannenberg, S. Dapprich, A. D. Daniels, 
 O. Farkas, J. B. Foresman, J. V. Ortiz, J. Cioslowski, 
 and D. J. Fox, Gaussian, Inc., Wallingford CT, 2010.
 
 ******************************************
 Gaussian 09:  EM64L-G09RevC.01 23-Sep-2011
                29-Jun-2018 
 ******************************************
 %nproc=2
 Will use up to    2 processors via shared memory.
 %mem=256MB
 %RWF=d23.rwf
 %chk=d2325
 %NoSave
 --------------------------------------
 #SP PBE1PBE/Def2TZVP geom=connectivity
 --------------------------------------
 1/38=1,57=2/1;
 2/12=2,17=6,18=5,40=1/2;
 3/5=44,7=101,11=2,16=1,25=1,30=1,74=-13/1,2,3;
 4//1;
 5/5=2,38=5/2;
 6/7=2,8=2,9=2,10=2,28=1/1;
 99/5=1,9=1/99;
 -------------
 Structure: 25
 -------------
 Charge =  0 Multiplicity = 1
 Symbolic Z-Matrix:
 H                     0.        0.        0. 
 C                     1.093     0.        0. 
 C                     1.655     1.421     0. 
 H                     1.41     -0.56     -0.885 
 H                     1.424    -0.557     0.88 
 H                     1.308     1.969    -0.883 
 Si                    3.513     1.515     0.035 
 H                     1.282     1.975     0.868 
 O                     4.08      3.057    -0.109 
 O                     4.032     0.556    -1.193 
 H                     4.097     1.054     1.321 
 H                     3.78      3.57     -0.86 
 C                     5.389     0.291    -1.459 
 H                     5.445    -0.428    -2.279 
 H                     5.892    -0.139    -0.586 
 H                     5.925     1.199    -1.753 
 
                          Input orientation:                          
 ---------------------------------------------------------------------
 Center     Atomic      Atomic             Coordinates (Angstroms)
 Number     Number       Type             X           Y           Z
 ---------------------------------------------------------------------
      1          1           0        0.000000    0.000000    0.000000
      2          6           0        1.093000    0.000000    0.000000
      3          6           0        1.655000    1.421000    0.000000
      4          1           0        1.410000   -0.560000   -0.885000
      5          1           0        1.424000   -0.557000    0.880000
      6          1           0        1.308000    1.969000   -0.883000
      7         14           0        3.513000    1.515000    0.035000
      8          1           0        1.282000    1.975000    0.868000
      9          8           0        4.080000    3.057000   -0.109000
     10          8           0        4.032000    0.556000   -1.193000
     11          1           0        4.097000    1.054000    1.321000
     12          1           0        3.780000    3.570000   -0.860000
     13          6           0        5.389000    0.291000   -1.459000
     14          1           0        5.445000   -0.428000   -2.279000
     15          1           0        5.892000   -0.139000   -0.586000
     16          1           0        5.925000    1.199000   -1.753000
 ---------------------------------------------------------------------
                    Distance matrix (angstroms):
                    1          2          3          4          5
     1  H    0.000000
     2  C    1.093000   0.000000
     3  C    2.181345   1.528098   0.000000
     4  H    1.756395   1.094218   2.183486   0.000000
     5  H    1.764207   1.092799   2.177210   1.765058   0.000000
     6  H    2.523393   2.168611   1.095629   2.531057   3.082580
     7  Si   3.825914   2.855320   1.860706   3.094291   3.061230
     8  H    2.509497   2.165588   1.095203   3.084740   2.536007
     9  O    5.099366   4.275430   2.927286   4.562211   4.592761
    10  O    4.241392   3.220265   2.796713   2.866218   3.512515
    11  H    4.431858   3.446734   2.800552   3.832936   3.151941
    12  H    5.270000   4.550216   3.142201   4.761767   5.060678
    13  C    5.590589   4.546315   4.165133   4.109272   4.680945
    14  H    5.918197   4.931220   4.793406   4.271052   5.115111
    15  H    5.922700   4.836643   4.552929   4.511648   4.720901
    16  H    6.294143   5.278147   4.621168   4.922675   5.502293
                    6          7          8          9         10
     6  H    0.000000
     7  Si   2.431227   0.000000
     8  H    1.751203   2.425459   0.000000
     9  O    3.076817   1.649239   3.155005   0.000000
    10  O    3.084290   1.642262   3.718035   2.726236   0.000000
    11  H    3.670608   1.485723   2.996277   2.461138   2.563674
    12  H    2.945253   2.257286   3.430745   0.957690   3.042793
    13  C    4.449946   2.692506   5.011809   3.344658   1.407988
    14  H    4.980883   3.586428   5.745310   4.326355   2.035736
    15  H    5.054199   2.963275   5.275909   3.704766   2.076313
    16  H    4.760934   3.019030   5.387881   3.091751   2.076174
                   11         12         13         14         15
    11  H    0.000000
    12  H    3.344773   0.000000
    13  C    3.159087   3.701287   0.000000
    14  H    4.119882   4.557389   1.092015   0.000000
    15  H    2.877833   4.276950   1.095462   1.774705   0.000000
    16  H    3.579397   3.319656   1.094621   1.776008   1.775731
                   16
    16  H    0.000000
 Stoichiometry    C3H10O2Si
 Framework group  C1[X(C3H10O2Si)]
 Deg. of freedom    42
 Full point group                 C1      NOp   1
 Largest Abelian subgroup         C1      NOp   1
 Largest concise Abelian subgroup C1      NOp   1
                         Standard orientation:                         
 ---------------------------------------------------------------------
 Center     Atomic      Atomic             Coordinates (Angstroms)
 Number     Number       Type             X           Y           Z
 ---------------------------------------------------------------------
      1          1           0       -3.409437   -0.976495   -0.311612
      2          6           0       -2.370940   -0.977645    0.029228
      3          6           0       -1.687036    0.360491   -0.247816
      4          1           0       -1.869130   -1.802318   -0.485957
      5          1           0       -2.373449   -1.207658    1.097543
      6          1           0       -1.699798    0.581036   -1.320942
      7         14           0        0.077961    0.458830    0.332993
      8          1           0       -2.237697    1.173870    0.236597
      9          8           0        0.821639    1.862668   -0.109919
     10          8           0        0.830253   -0.856971   -0.299266
     11          1           0        0.206825    0.455133    1.813112
     12          1           0        0.811105    2.094453   -1.039077
     13          6           0        2.169683   -1.197252   -0.029886
     14          1           0        2.387657   -2.149649   -0.517662
     15          1           0        2.346051   -1.310147    1.045375
     16          1           0        2.861031   -0.440973   -0.414951
 ---------------------------------------------------------------------
 Rotational constants (GHZ):      3.6980592      2.0719608      1.4395701
 Standard basis: def2TZVP (5D, 7F)
 There are   252 symmetry adapted basis functions of A   symmetry.
 Integral buffers will be    131072 words long.
 Raffenetti 2 integral format.
 Two-electron integral symmetry is turned on.
   252 basis functions,   404 primitive gaussians,   282 cartesian basis functions
    29 alpha electrons       29 beta electrons
       nuclear repulsion energy       328.1120550607 Hartrees.
 NAtoms=   16 NActive=   16 NUniq=   16 SFac= 1.00D+00 NAtFMM=   60 NAOKFM=F Big=F
 One-electron integrals computed using PRISM.
   1 Symmetry operations used in ECPInt.
 ECPInt:  NShTT=    5886 NPrTT=   17754 LenC2=    5770 LenP2D=   13863.
 LDataN:  DoStor=T MaxTD1= 6 Len=  172
 NBasis=   252 RedAO= T  NBF=   252
 NBsUse=   252 1.00D-06 NBFU=   252
 Harris functional with IExCor= 1009 diagonalized for initial guess.
 ExpMin= 7.01D-02 ExpMax= 4.48D+04 ExpMxC= 1.53D+03 IAcc=2 IRadAn=         4 AccDes= 0.00D+00
 HarFok:  IExCor= 1009 AccDes= 0.00D+00 IRadAn=         4 IDoV= 1
 ScaDFX=  1.000000  1.000000  1.000000  1.000000
 FoFCou: FMM=F IPFlag=           0 FMFlag=      100000 FMFlg1=           0
         NFxFlg=           0 DoJE=T BraDBF=F KetDBF=T FulRan=T
         Omega=  0.000000  0.000000  1.000000  0.000000  0.000000 ICntrl=     500 IOpCl=  0
         NMat0=    1 NMatS0=    1 NMatT0=    0 NMatD0=    1 NMtDS0=    0 NMtDT0=    0
         I1Cent=           4 NGrid=           0.
 Petite list used in FoFCou.
 Initial guess orbital symmetries:
       Occupied  (A) (A) (A) (A) (A) (A) (A) (A) (A) (A) (A) (A)
                 (A) (A) (A) (A) (A) (A) (A) (A) (A) (A) (A) (A)
                 (A) (A) (A) (A) (A)
       Virtual   (A) (A) (A) (A) (A) (A) (A) (A) (A) (A) (A) (A)
                 (A) (A) (A) (A) (A) (A) (A) (A) (A) (A) (A) (A)
                 (A) (A) (A) (A) (A) (A) (A) (A) (A) (A) (A) (A)
                 (A) (A) (A) (A) (A) (A) (A) (A) (A) (A) (A) (A)
                 (A) (A) (A) (A) (A) (A) (A) (A) (A) (A) (A) (A)
                 (A) (A) (A) (A) (A) (A) (A) (A) (A) (A) (A) (A)
                 (A) (A) (A) (A) (A) (A) (A) (A) (A) (A) (A) (A)
                 (A) (A) (A) (A) (A) (A) (A) (A) (A) (A) (A) (A)
                 (A) (A) (A) (A) (A) (A) (A) (A) (A) (A) (A) (A)
                 (A) (A) (A) (A) (A) (A) (A) (A) (A) (A) (A) (A)
                 (A) (A) (A) (A) (A) (A) (A) (A) (A) (A) (A) (A)
                 (A) (A) (A) (A) (A) (A) (A) (A) (A) (A) (A) (A)
                 (A) (A) (A) (A) (A) (A) (A) (A) (A) (A) (A) (A)
                 (A) (A) (A) (A) (A) (A) (A) (A) (A) (A) (A) (A)
                 (A) (A) (A) (A) (A) (A) (A) (A) (A) (A) (A) (A)
                 (A) (A) (A) (A) (A) (A) (A) (A) (A) (A) (A) (A)
                 (A) (A) (A) (A) (A) (A) (A) (A) (A) (A) (A) (A)
                 (A) (A) (A) (A) (A) (A) (A) (A) (A) (A) (A) (A)
                 (A) (A) (A) (A) (A) (A) (A)
 The electronic state of the initial guess is 1-A.
 Requested convergence on RMS density matrix=1.00D-08 within 128 cycles.
 Requested convergence on MAX density matrix=1.00D-06.
 Requested convergence on             energy=1.00D-06.
 No special actions if energy rises.
 Integral accuracy reduced to 1.0D-05 until final iterations.
 Initial convergence to 1.0D-05 achieved.  Increase integral accuracy.
 SCF Done:  E(RPBE1PBE) =  -560.061377251     A.U. after   12 cycles
             Convg  =    0.7432D-08             -V/T =  2.0033

 **********************************************************************

            Population analysis using the SCF density.

 **********************************************************************

 Orbital symmetries:
       Occupied  (A) (A) (A) (A) (A) (A) (A) (A) (A) (A) (A) (A)
                 (A) (A) (A) (A) (A) (A) (A) (A) (A) (A) (A) (A)
                 (A) (A) (A) (A) (A)
       Virtual   (A) (A) (A) (A) (A) (A) (A) (A) (A) (A) (A) (A)
                 (A) (A) (A) (A) (A) (A) (A) (A) (A) (A) (A) (A)
                 (A) (A) (A) (A) (A) (A) (A) (A) (A) (A) (A) (A)
                 (A) (A) (A) (A) (A) (A) (A) (A) (A) (A) (A) (A)
                 (A) (A) (A) (A) (A) (A) (A) (A) (A) (A) (A) (A)
                 (A) (A) (A) (A) (A) (A) (A) (A) (A) (A) (A) (A)
                 (A) (A) (A) (A) (A) (A) (A) (A) (A) (A) (A) (A)
                 (A) (A) (A) (A) (A) (A) (A) (A) (A) (A) (A) (A)
                 (A) (A) (A) (A) (A) (A) (A) (A) (A) (A) (A) (A)
                 (A) (A) (A) (A) (A) (A) (A) (A) (A) (A) (A) (A)
                 (A) (A) (A) (A) (A) (A) (A) (A) (A) (A) (A) (A)
                 (A) (A) (A) (A) (A) (A) (A) (A) (A) (A) (A) (A)
                 (A) (A) (A) (A) (A) (A) (A) (A) (A) (A) (A) (A)
                 (A) (A) (A) (A) (A) (A) (A) (A) (A) (A) (A) (A)
                 (A) (A) (A) (A) (A) (A) (A) (A) (A) (A) (A) (A)
                 (A) (A) (A) (A) (A) (A) (A) (A) (A) (A) (A) (A)
                 (A) (A) (A) (A) (A) (A) (A) (A) (A) (A) (A) (A)
                 (A) (A) (A) (A) (A) (A) (A) (A) (A) (A) (A) (A)
                 (A) (A) (A) (A) (A) (A) (A)
 The electronic state is 1-A.
 Alpha  occ. eigenvalues --  -66.25394 -19.20279 -19.20043 -10.26452 -10.21217
 Alpha  occ. eigenvalues --  -10.20878  -5.33054  -3.66583  -3.66463  -3.66328
 Alpha  occ. eigenvalues --   -1.04468  -1.02317  -0.77965  -0.70494  -0.63791
 Alpha  occ. eigenvalues --   -0.56784  -0.51203  -0.46984  -0.46714  -0.45553
 Alpha  occ. eigenvalues --   -0.43081  -0.40907  -0.38656  -0.38009  -0.35868
 Alpha  occ. eigenvalues --   -0.35500  -0.31908  -0.30644  -0.29498
 Alpha virt. eigenvalues --    0.03106   0.04691   0.05529   0.08281   0.09239
 Alpha virt. eigenvalues --    0.10406   0.11167   0.11587   0.12596   0.13234
 Alpha virt. eigenvalues --    0.14873   0.15073   0.15765   0.17233   0.18027
 Alpha virt. eigenvalues --    0.20814   0.21892   0.23489   0.24580   0.25112
 Alpha virt. eigenvalues --    0.26761   0.27690   0.28647   0.29785   0.31678
 Alpha virt. eigenvalues --    0.35142   0.37065   0.38462   0.39676   0.41598
 Alpha virt. eigenvalues --    0.42305   0.42989   0.43807   0.44833   0.45386
 Alpha virt. eigenvalues --    0.46414   0.47307   0.47721   0.49524   0.50986
 Alpha virt. eigenvalues --    0.52708   0.54244   0.55119   0.56283   0.57128
 Alpha virt. eigenvalues --    0.61037   0.63227   0.65716   0.66564   0.68617
 Alpha virt. eigenvalues --    0.73212   0.74596   0.75998   0.77569   0.79519
 Alpha virt. eigenvalues --    0.82699   0.83800   0.87812   0.89176   0.91461
 Alpha virt. eigenvalues --    0.93031   0.95379   0.97780   0.99666   1.02435
 Alpha virt. eigenvalues --    1.04166   1.06403   1.07868   1.07957   1.10482
 Alpha virt. eigenvalues --    1.13508   1.15005   1.15698   1.20790   1.21137
 Alpha virt. eigenvalues --    1.23372   1.28131   1.34333   1.35459   1.39102
 Alpha virt. eigenvalues --    1.42453   1.47386   1.48504   1.51145   1.51578
 Alpha virt. eigenvalues --    1.53496   1.55334   1.56215   1.56472   1.58395
 Alpha virt. eigenvalues --    1.58780   1.61894   1.62463   1.63570   1.67553
 Alpha virt. eigenvalues --    1.68728   1.71546   1.74064   1.77853   1.80820
 Alpha virt. eigenvalues --    1.81244   1.82892   1.85993   1.89999   1.92703
 Alpha virt. eigenvalues --    1.94100   1.96175   1.98853   2.02128   2.03146
 Alpha virt. eigenvalues --    2.03678   2.09953   2.10201   2.13877   2.15843
 Alpha virt. eigenvalues --    2.17119   2.19680   2.23412   2.25703   2.31076
 Alpha virt. eigenvalues --    2.32970   2.33706   2.34790   2.34956   2.35579
 Alpha virt. eigenvalues --    2.36440   2.41020   2.45349   2.47013   2.48886
 Alpha virt. eigenvalues --    2.51611   2.53049   2.54823   2.56090   2.58579
 Alpha virt. eigenvalues --    2.59729   2.60825   2.66367   2.67440   2.71900
 Alpha virt. eigenvalues --    2.73142   2.76099   2.80776   2.81895   2.82630
 Alpha virt. eigenvalues --    2.84059   2.91882   2.97656   3.01086   3.03598
 Alpha virt. eigenvalues --    3.04689   3.09065   3.10837   3.11978   3.15694
 Alpha virt. eigenvalues --    3.21744   3.22322   3.24326   3.26664   3.29951
 Alpha virt. eigenvalues --    3.32060   3.33190   3.36705   3.39831   3.44316
 Alpha virt. eigenvalues --    3.44571   3.45322   3.49342   3.53668   3.53863
 Alpha virt. eigenvalues --    3.58717   3.59697   3.62843   3.66501   3.76933
 Alpha virt. eigenvalues --    3.81633   3.88068   3.92562   3.96236   4.04176
 Alpha virt. eigenvalues --    4.19195   4.24490   4.25111   4.34492   4.36909
 Alpha virt. eigenvalues --    4.42484   4.46963   4.53617   4.57086   4.79672
 Alpha virt. eigenvalues --    5.15717   5.17034   5.18256   5.18532   5.28293
 Alpha virt. eigenvalues --    5.29343   5.38621   5.41810   5.45548   5.49849
 Alpha virt. eigenvalues --    5.79928   5.86708   6.03332   6.22722   6.38805
 Alpha virt. eigenvalues --    6.41950   6.53354   6.59001   6.60811   6.66210
 Alpha virt. eigenvalues --    6.68207   6.78680   6.82606   6.97606   7.06169
 Alpha virt. eigenvalues --    7.15821   7.22780  11.90366  22.37691  22.40764
 Alpha virt. eigenvalues --   22.45259  43.61270  43.92802
          Condensed to atoms (all electrons):
              1          2          3          4          5          6
     1  H    0.569174   0.396426  -0.027341  -0.026398  -0.026575  -0.006912
     2  C    0.396426   4.966866   0.258335   0.409801   0.408326  -0.023997
     3  C   -0.027341   0.258335   5.096637  -0.036155  -0.039909   0.371373
     4  H   -0.026398   0.409801  -0.036155   0.535721  -0.022170  -0.003717
     5  H   -0.026575   0.408326  -0.039909  -0.022170   0.558587   0.007988
     6  H   -0.006912  -0.023997   0.371373  -0.003717   0.007988   0.588078
     7  Si   0.005975  -0.012943   0.422979  -0.008221  -0.007242  -0.019960
     8  H   -0.007295  -0.030594   0.390321   0.007543  -0.003653  -0.026404
     9  O   -0.000109   0.004482  -0.041653  -0.000012  -0.000044  -0.000048
    10  O    0.000130   0.000130  -0.037069   0.007826  -0.000760   0.000671
    11  H   -0.000316   0.000091  -0.039847   0.000669   0.003065   0.003141
    12  H   -0.000003   0.000175  -0.003314  -0.000011   0.000011   0.001874
    13  C   -0.000001   0.000113   0.001177  -0.000124   0.000042   0.000094
    14  H   -0.000009   0.000209  -0.000307  -0.000222   0.000001   0.000029
    15  H    0.000000  -0.000319   0.000134   0.000077   0.000137   0.000032
    16  H    0.000005  -0.000038   0.000582   0.000068  -0.000018  -0.000036
              7          8          9         10         11         12
     1  H    0.005975  -0.007295  -0.000109   0.000130  -0.000316  -0.000003
     2  C   -0.012943  -0.030594   0.004482   0.000130   0.000091   0.000175
     3  C    0.422979   0.390321  -0.041653  -0.037069  -0.039847  -0.003314
     4  H   -0.008221   0.007543  -0.000012   0.007826   0.000669  -0.000011
     5  H   -0.007242  -0.003653  -0.000044  -0.000760   0.003065   0.000011
     6  H   -0.019960  -0.026404  -0.000048   0.000671   0.003141   0.001874
     7  Si  11.882182  -0.027792   0.475858   0.449856   0.386447  -0.027606
     8  H   -0.027792   0.573128  -0.000182   0.001470   0.001262  -0.000063
     9  O    0.475858  -0.000182   7.845912  -0.032990  -0.017017   0.299559
    10  O    0.449856   0.001470  -0.032990   7.841626  -0.027360  -0.001036
    11  H    0.386447   0.001262  -0.017017  -0.027360   0.741049   0.004098
    12  H   -0.027606  -0.000063   0.299559  -0.001036   0.004098   0.406496
    13  C   -0.050544  -0.000110  -0.006965   0.263334   0.002901   0.000866
    14  H    0.008067   0.000002   0.000070  -0.040775  -0.000272   0.000030
    15  H   -0.017154   0.000007  -0.000588  -0.043284   0.010343  -0.000070
    16  H   -0.005947   0.000000   0.006733  -0.043167  -0.002035   0.000320
             13         14         15         16
     1  H   -0.000001  -0.000009   0.000000   0.000005
     2  C    0.000113   0.000209  -0.000319  -0.000038
     3  C    0.001177  -0.000307   0.000134   0.000582
     4  H   -0.000124  -0.000222   0.000077   0.000068
     5  H    0.000042   0.000001   0.000137  -0.000018
     6  H    0.000094   0.000029   0.000032  -0.000036
     7  Si  -0.050544   0.008067  -0.017154  -0.005947
     8  H   -0.000110   0.000002   0.000007   0.000000
     9  O   -0.006965   0.000070  -0.000588   0.006733
    10  O    0.263334  -0.040775  -0.043284  -0.043167
    11  H    0.002901  -0.000272   0.010343  -0.002035
    12  H    0.000866   0.000030  -0.000070   0.000320
    13  C    4.766915   0.401748   0.419024   0.412178
    14  H    0.401748   0.567610  -0.030847  -0.033509
    15  H    0.419024  -0.030847   0.591949  -0.047620
    16  H    0.412178  -0.033509  -0.047620   0.593025
 Mulliken atomic charges:
              1
     1  H    0.123249
     2  C   -0.377062
     3  C   -0.315944
     4  H    0.135325
     5  H    0.122215
     6  H    0.107794
     7  Si   0.546046
     8  H    0.122359
     9  O   -0.533006
    10  O   -0.338602
    11  H   -0.066217
    12  H    0.318675
    13  C   -0.210648
    14  H    0.128175
    15  H    0.118179
    16  H    0.119461
 Sum of Mulliken atomic charges =   0.00000
 Mulliken charges with hydrogens summed into heavy atoms:
              1
     2  C    0.003727
     3  C   -0.085790
     7  Si   0.479829
     9  O   -0.214331
    10  O   -0.338602
    13  C    0.155167
 Sum of Mulliken charges with hydrogens summed into heavy atoms =   0.00000
 Electronic spatial extent (au):  <R**2>=            887.8783
 Charge=              0.0000 electrons
 Dipole moment (field-independent basis, Debye):
    X=              0.0075    Y=             -0.1604    Z=             -1.1304  Tot=              1.1418
 Quadrupole moment (field-independent basis, Debye-Ang):
   XX=            -42.4510   YY=            -46.5729   ZZ=            -43.8498
   XY=             -2.6026   XZ=             -1.0539   YZ=             -3.8516
 Traceless Quadrupole moment (field-independent basis, Debye-Ang):
   XX=              1.8402   YY=             -2.2817   ZZ=              0.4415
   XY=             -2.6026   XZ=             -1.0539   YZ=             -3.8516
 Octapole moment (field-independent basis, Debye-Ang**2):
  XXX=             13.6990  YYY=             -0.0189  ZZZ=             -8.2852  XYY=              3.1021
  XXY=             -3.2998  XXZ=             -2.3340  XZZ=              3.6200  YZZ=              5.6668
  YYZ=             -9.0868  XYZ=             -3.5777
 Hexadecapole moment (field-independent basis, Debye-Ang**3):
 XXXX=           -710.4931 YYYY=           -363.9327 ZZZZ=           -110.6777 XXXY=            -10.9887
 XXXZ=             -3.6278 YYYX=             -9.6936 YYYZ=            -15.7567 ZZZX=             -3.9068
 ZZZY=            -11.0318 XXYY=           -179.0637 XXZZ=           -136.6728 YYZZ=            -67.8311
 XXYZ=             -1.4845 YYXZ=             -9.6762 ZZXY=              3.8161
 N-N= 3.281120550607D+02 E-N=-1.980250169695D+03  KE= 5.582409451043D+02
 1\1\GINC-TARSUS2\SP\RPBE1PBE\def2TZVP\C3H10O2Si1\RENATO\29-Jun-2018\0\
 \#SP PBE1PBE/Def2TZVP geom=connectivity\\Structure: 25\\0,1\H,0,0.,0.,
 0.\C,0,1.093,0.,0.\C,0,1.655,1.421,0.\H,0,1.41,-0.56,-0.885\H,0,1.424,
 -0.557,0.88\H,0,1.308,1.969,-0.883\Si,0,3.513,1.515,0.035\H,0,1.282,1.
 975,0.868\O,0,4.08,3.057,-0.109\O,0,4.032,0.556,-1.193\H,0,4.097,1.054
 ,1.321\H,0,3.78,3.57,-0.86\C,0,5.389,0.291,-1.459\H,0,5.445,-0.428,-2.
 279\H,0,5.892,-0.139,-0.586\H,0,5.925,1.199,-1.753\\Version=EM64L-G09R
 evC.01\State=1-A\HF=-560.0613773\RMSD=7.432e-09\Dipole=-0.1358334,0.08
 24116,-0.4201781\Quadrupole=0.8084464,-0.0718247,-0.7366217,-2.2566184
 ,-1.7978629,-2.4619999\PG=C01 [X(C3H10O2Si1)]\\@


 THERE'S NOTHING WRONG WITH FOLLOWING A TRAIN OF THOUGHT...
 AS LONG AS IT ULTIMATELY PULLS INTO THE STATION.
 Job cpu time:  0 days  0 hours  8 minutes 20.5 seconds.
 File lengths (MBytes):  RWF=     40 Int=      0 D2E=      0 Chk=      3 Scr=      1
 Normal termination of Gaussian 09 at Fri Jun 29 11:33:33 2018.
