 Entering Gaussian System, Link 0=g09
 Initial command:
 /usr/local/gaussian09/g09/l1.exe /scratch/renato/Gau-27299.inp -scrdir=/scratch/renato/
 Entering Link 1 = /usr/local/gaussian09/g09/l1.exe PID=     27301.
  
 Copyright (c) 1988,1990,1992,1993,1995,1998,2003,2009,2011,
            Gaussian, Inc.  All Rights Reserved.
  
 This is part of the Gaussian(R) 09 program.  It is based on
 the Gaussian(R) 03 system (copyright 2003, Gaussian, Inc.),
 the Gaussian(R) 98 system (copyright 1998, Gaussian, Inc.),
 the Gaussian(R) 94 system (copyright 1995, Gaussian, Inc.),
 the Gaussian 92(TM) system (copyright 1992, Gaussian, Inc.),
 the Gaussian 90(TM) system (copyright 1990, Gaussian, Inc.),
 the Gaussian 88(TM) system (copyright 1988, Gaussian, Inc.),
 the Gaussian 86(TM) system (copyright 1986, Carnegie Mellon
 University), and the Gaussian 82(TM) system (copyright 1983,
 Carnegie Mellon University). Gaussian is a federally registered
 trademark of Gaussian, Inc.
  
 This software contains proprietary and confidential information,
 including trade secrets, belonging to Gaussian, Inc.
  
 This software is provided under written license and may be
 used, copied, transmitted, or stored only in accord with that
 written license.
  
 The following legend is applicable only to US Government
 contracts under FAR:
  
                    RESTRICTED RIGHTS LEGEND
  
 Use, reproduction and disclosure by the US Government is
 subject to restrictions as set forth in subparagraphs (a)
 and (c) of the Commercial Computer Software - Restricted
 Rights clause in FAR 52.227-19.
  
 Gaussian, Inc.
 340 Quinnipiac St., Bldg. 40, Wallingford CT 06492
  
  
 ---------------------------------------------------------------
 Warning -- This program may not be used in any manner that
 competes with the business of Gaussian, Inc. or will provide
 assistance to any competitor of Gaussian, Inc.  The licensee
 of this program is prohibited from giving any competitor of
 Gaussian, Inc. access to this program.  By using this program,
 the user acknowledges that Gaussian, Inc. is engaged in the
 business of creating and licensing software in the field of
 computational chemistry and represents and warrants to the
 licensee that it is not a competitor of Gaussian, Inc. and that
 it will not use this program in any manner prohibited above.
 ---------------------------------------------------------------
  

 Cite this work as:
 Gaussian 09, Revision C.01,
 M. J. Frisch, G. W. Trucks, H. B. Schlegel, G. E. Scuseria, 
 M. A. Robb, J. R. Cheeseman, G. Scalmani, V. Barone, B. Mennucci, 
 G. A. Petersson, H. Nakatsuji, M. Caricato, X. Li, H. P. Hratchian, 
 A. F. Izmaylov, J. Bloino, G. Zheng, J. L. Sonnenberg, M. Hada, 
 M. Ehara, K. Toyota, R. Fukuda, J. Hasegawa, M. Ishida, T. Nakajima, 
 Y. Honda, O. Kitao, H. Nakai, T. Vreven, J. A. Montgomery, Jr., 
 J. E. Peralta, F. Ogliaro, M. Bearpark, J. J. Heyd, E. Brothers, 
 K. N. Kudin, V. N. Staroverov, T. Keith, R. Kobayashi, J. Normand, 
 K. Raghavachari, A. Rendell, J. C. Burant, S. S. Iyengar, J. Tomasi, 
 M. Cossi, N. Rega, J. M. Millam, M. Klene, J. E. Knox, J. B. Cross, 
 V. Bakken, C. Adamo, J. Jaramillo, R. Gomperts, R. E. Stratmann, 
 O. Yazyev, A. J. Austin, R. Cammi, C. Pomelli, J. W. Ochterski, 
 R. L. Martin, K. Morokuma, V. G. Zakrzewski, G. A. Voth, 
 P. Salvador, J. J. Dannenberg, S. Dapprich, A. D. Daniels, 
 O. Farkas, J. B. Foresman, J. V. Ortiz, J. Cioslowski, 
 and D. J. Fox, Gaussian, Inc., Wallingford CT, 2010.
 
 ******************************************
 Gaussian 09:  EM64L-G09RevC.01 23-Sep-2011
                29-Jun-2018 
 ******************************************
 %nproc=2
 Will use up to    2 processors via shared memory.
 %mem=256MB
 %RWF=d23.rwf
 %chk=d2328
 %NoSave
 --------------------------------------
 #SP PBE1PBE/Def2TZVP geom=connectivity
 --------------------------------------
 1/38=1,57=2/1;
 2/12=2,17=6,18=5,40=1/2;
 3/5=44,7=101,11=2,16=1,25=1,30=1,74=-13/1,2,3;
 4//1;
 5/5=2,38=5/2;
 6/7=2,8=2,9=2,10=2,28=1/1;
 99/5=1,9=1/99;
 -------------
 Structure: 28
 -------------
 Charge =  0 Multiplicity = 1
 Symbolic Z-Matrix:
 H                     0.        0.        0. 
 C                     1.093     0.        0. 
 C                     1.655     1.421     0. 
 H                     1.41     -0.56     -0.885 
 H                     1.424    -0.557     0.88 
 H                     1.308     1.969    -0.883 
 Si                    3.513     1.515     0.035 
 H                     1.282     1.975     0.868 
 O                     4.077     3.065     0.049 
 O                     4.027     0.691    -1.289 
 H                     4.105     0.923     1.262 
 H                     3.771     3.653    -0.642 
 C                     5.383     0.458    -1.588 
 H                     5.436    -0.172    -2.479 
 H                     5.891    -0.06     -0.767 
 H                     5.916     1.393    -1.789 
 
                          Input orientation:                          
 ---------------------------------------------------------------------
 Center     Atomic      Atomic             Coordinates (Angstroms)
 Number     Number       Type             X           Y           Z
 ---------------------------------------------------------------------
      1          1           0        0.000000    0.000000    0.000000
      2          6           0        1.093000    0.000000    0.000000
      3          6           0        1.655000    1.421000    0.000000
      4          1           0        1.410000   -0.560000   -0.885000
      5          1           0        1.424000   -0.557000    0.880000
      6          1           0        1.308000    1.969000   -0.883000
      7         14           0        3.513000    1.515000    0.035000
      8          1           0        1.282000    1.975000    0.868000
      9          8           0        4.077000    3.065000    0.049000
     10          8           0        4.027000    0.691000   -1.289000
     11          1           0        4.105000    0.923000    1.262000
     12          1           0        3.771000    3.653000   -0.642000
     13          6           0        5.383000    0.458000   -1.588000
     14          1           0        5.436000   -0.172000   -2.479000
     15          1           0        5.891000   -0.060000   -0.767000
     16          1           0        5.916000    1.393000   -1.789000
 ---------------------------------------------------------------------
                    Distance matrix (angstroms):
                    1          2          3          4          5
     1  H    0.000000
     2  C    1.093000   0.000000
     3  C    2.181345   1.528098   0.000000
     4  H    1.756395   1.094218   2.183486   0.000000
     5  H    1.764207   1.092799   2.177210   1.765058   0.000000
     6  H    2.523393   2.168611   1.095629   2.531057   3.082580
     7  Si   3.825914   2.855320   1.860706   3.094291   3.061230
     8  H    2.509497   2.165588   1.095203   3.084740   2.536007
     9  O    5.100839   4.277953   2.927665   4.596289   4.565945
    10  O    4.284359   3.278316   2.796570   2.928636   3.610772
    11  H    4.392675   3.393629   2.800562   3.751256   3.086112
    12  H    5.289330   4.574741   3.141885   4.835570   5.054601
    13  C    5.631003   4.597348   4.164985   4.161161   4.774404
    14  H    5.977050   5.003666   4.793647   4.347419   5.246642
    15  H    5.941024   4.859289   4.552510   4.510353   4.786826
    16  H    6.335616   5.329381   4.621410   4.993542   5.577107
                    6          7          8          9         10
     6  H    0.000000
     7  Si   2.431227   0.000000
     8  H    1.751203   2.425459   0.000000
     9  O    3.120449   1.649482   3.109805   0.000000
    10  O    3.031680   1.641995   3.719722   2.725549   0.000000
    11  H    3.676731   1.485415   3.038300   2.461771   2.562715
    12  H    2.993377   2.257418   3.360194   0.957529   3.042629
    13  C    4.402928   2.692263   5.015120   3.343928   1.407987
    14  H    4.916450   3.586655   5.750455   4.326180   2.036210
    15  H    5.013401   2.962889   5.296917   3.704332   2.076290
    16  H    4.731414   3.019316   5.373298   3.091237   2.076325
                   11         12         13         14         15
    11  H    0.000000
    12  H    3.345097   0.000000
    13  C    3.157849   3.701552   0.000000
    14  H    4.118940   4.558225   1.092515   0.000000
    15  H    2.876269   4.277428   1.095641   1.774968   0.000000
    16  H    3.578997   3.320276   1.094858   1.776436   1.776603
                   16
    16  H    0.000000
 Stoichiometry    C3H10O2Si
 Framework group  C1[X(C3H10O2Si)]
 Deg. of freedom    42
 Full point group                 C1      NOp   1
 Largest Abelian subgroup         C1      NOp   1
 Largest concise Abelian subgroup C1      NOp   1
                         Standard orientation:                         
 ---------------------------------------------------------------------
 Center     Atomic      Atomic             Coordinates (Angstroms)
 Number     Number       Type             X           Y           Z
 ---------------------------------------------------------------------
      1          1           0       -3.429595   -0.960230   -0.305451
      2          6           0       -2.400891   -0.957457    0.063884
      3          6           0       -1.677727    0.339444   -0.296902
      4          1           0       -1.905576   -1.830856   -0.371031
      5          1           0       -2.437451   -1.102798    1.146358
      6          1           0       -1.656528    0.475307   -1.383868
      7         14           0        0.073008    0.444236    0.324525
      8          1           0       -2.221314    1.200245    0.106835
      9          8           0        0.811359    1.864500   -0.073571
     10          8           0        0.853320   -0.849740   -0.318038
     11          1           0        0.170072    0.410240    1.806375
     12          1           0        0.817277    2.115831   -0.997507
     13          6           0        2.190111   -1.181585   -0.025985
     14          1           0        2.429242   -2.121936   -0.528127
     15          1           0        2.343702   -1.315167    1.050581
     16          1           0        2.881672   -0.410423   -0.380623
 ---------------------------------------------------------------------
 Rotational constants (GHZ):      3.7403571      2.0410358      1.4331449
 Standard basis: def2TZVP (5D, 7F)
 There are   252 symmetry adapted basis functions of A   symmetry.
 Integral buffers will be    131072 words long.
 Raffenetti 2 integral format.
 Two-electron integral symmetry is turned on.
   252 basis functions,   404 primitive gaussians,   282 cartesian basis functions
    29 alpha electrons       29 beta electrons
       nuclear repulsion energy       327.8437238062 Hartrees.
 NAtoms=   16 NActive=   16 NUniq=   16 SFac= 1.00D+00 NAtFMM=   60 NAOKFM=F Big=F
 One-electron integrals computed using PRISM.
   1 Symmetry operations used in ECPInt.
 ECPInt:  NShTT=    5886 NPrTT=   17754 LenC2=    5770 LenP2D=   13853.
 LDataN:  DoStor=T MaxTD1= 6 Len=  172
 NBasis=   252 RedAO= T  NBF=   252
 NBsUse=   252 1.00D-06 NBFU=   252
 Harris functional with IExCor= 1009 diagonalized for initial guess.
 ExpMin= 7.01D-02 ExpMax= 4.48D+04 ExpMxC= 1.53D+03 IAcc=2 IRadAn=         4 AccDes= 0.00D+00
 HarFok:  IExCor= 1009 AccDes= 0.00D+00 IRadAn=         4 IDoV= 1
 ScaDFX=  1.000000  1.000000  1.000000  1.000000
 FoFCou: FMM=F IPFlag=           0 FMFlag=      100000 FMFlg1=           0
         NFxFlg=           0 DoJE=T BraDBF=F KetDBF=T FulRan=T
         Omega=  0.000000  0.000000  1.000000  0.000000  0.000000 ICntrl=     500 IOpCl=  0
         NMat0=    1 NMatS0=    1 NMatT0=    0 NMatD0=    1 NMtDS0=    0 NMtDT0=    0
         I1Cent=           4 NGrid=           0.
 Petite list used in FoFCou.
 Initial guess orbital symmetries:
       Occupied  (A) (A) (A) (A) (A) (A) (A) (A) (A) (A) (A) (A)
                 (A) (A) (A) (A) (A) (A) (A) (A) (A) (A) (A) (A)
                 (A) (A) (A) (A) (A)
       Virtual   (A) (A) (A) (A) (A) (A) (A) (A) (A) (A) (A) (A)
                 (A) (A) (A) (A) (A) (A) (A) (A) (A) (A) (A) (A)
                 (A) (A) (A) (A) (A) (A) (A) (A) (A) (A) (A) (A)
                 (A) (A) (A) (A) (A) (A) (A) (A) (A) (A) (A) (A)
                 (A) (A) (A) (A) (A) (A) (A) (A) (A) (A) (A) (A)
                 (A) (A) (A) (A) (A) (A) (A) (A) (A) (A) (A) (A)
                 (A) (A) (A) (A) (A) (A) (A) (A) (A) (A) (A) (A)
                 (A) (A) (A) (A) (A) (A) (A) (A) (A) (A) (A) (A)
                 (A) (A) (A) (A) (A) (A) (A) (A) (A) (A) (A) (A)
                 (A) (A) (A) (A) (A) (A) (A) (A) (A) (A) (A) (A)
                 (A) (A) (A) (A) (A) (A) (A) (A) (A) (A) (A) (A)
                 (A) (A) (A) (A) (A) (A) (A) (A) (A) (A) (A) (A)
                 (A) (A) (A) (A) (A) (A) (A) (A) (A) (A) (A) (A)
                 (A) (A) (A) (A) (A) (A) (A) (A) (A) (A) (A) (A)
                 (A) (A) (A) (A) (A) (A) (A) (A) (A) (A) (A) (A)
                 (A) (A) (A) (A) (A) (A) (A) (A) (A) (A) (A) (A)
                 (A) (A) (A) (A) (A) (A) (A) (A) (A) (A) (A) (A)
                 (A) (A) (A) (A) (A) (A) (A) (A) (A) (A) (A) (A)
                 (A) (A) (A) (A) (A) (A) (A)
 The electronic state of the initial guess is 1-A.
 Requested convergence on RMS density matrix=1.00D-08 within 128 cycles.
 Requested convergence on MAX density matrix=1.00D-06.
 Requested convergence on             energy=1.00D-06.
 No special actions if energy rises.
 Integral accuracy reduced to 1.0D-05 until final iterations.
 Initial convergence to 1.0D-05 achieved.  Increase integral accuracy.
 SCF Done:  E(RPBE1PBE) =  -560.061487088     A.U. after   12 cycles
             Convg  =    0.7234D-08             -V/T =  2.0033

 **********************************************************************

            Population analysis using the SCF density.

 **********************************************************************

 Orbital symmetries:
       Occupied  (A) (A) (A) (A) (A) (A) (A) (A) (A) (A) (A) (A)
                 (A) (A) (A) (A) (A) (A) (A) (A) (A) (A) (A) (A)
                 (A) (A) (A) (A) (A)
       Virtual   (A) (A) (A) (A) (A) (A) (A) (A) (A) (A) (A) (A)
                 (A) (A) (A) (A) (A) (A) (A) (A) (A) (A) (A) (A)
                 (A) (A) (A) (A) (A) (A) (A) (A) (A) (A) (A) (A)
                 (A) (A) (A) (A) (A) (A) (A) (A) (A) (A) (A) (A)
                 (A) (A) (A) (A) (A) (A) (A) (A) (A) (A) (A) (A)
                 (A) (A) (A) (A) (A) (A) (A) (A) (A) (A) (A) (A)
                 (A) (A) (A) (A) (A) (A) (A) (A) (A) (A) (A) (A)
                 (A) (A) (A) (A) (A) (A) (A) (A) (A) (A) (A) (A)
                 (A) (A) (A) (A) (A) (A) (A) (A) (A) (A) (A) (A)
                 (A) (A) (A) (A) (A) (A) (A) (A) (A) (A) (A) (A)
                 (A) (A) (A) (A) (A) (A) (A) (A) (A) (A) (A) (A)
                 (A) (A) (A) (A) (A) (A) (A) (A) (A) (A) (A) (A)
                 (A) (A) (A) (A) (A) (A) (A) (A) (A) (A) (A) (A)
                 (A) (A) (A) (A) (A) (A) (A) (A) (A) (A) (A) (A)
                 (A) (A) (A) (A) (A) (A) (A) (A) (A) (A) (A) (A)
                 (A) (A) (A) (A) (A) (A) (A) (A) (A) (A) (A) (A)
                 (A) (A) (A) (A) (A) (A) (A) (A) (A) (A) (A) (A)
                 (A) (A) (A) (A) (A) (A) (A) (A) (A) (A) (A) (A)
                 (A) (A) (A) (A) (A) (A) (A)
 The electronic state is 1-A.
 Alpha  occ. eigenvalues --  -66.25390 -19.20269 -19.20038 -10.26456 -10.21262
 Alpha  occ. eigenvalues --  -10.20874  -5.33050  -3.66578  -3.66459  -3.66324
 Alpha  occ. eigenvalues --   -1.04465  -1.02310  -0.77982  -0.70495  -0.63795
 Alpha  occ. eigenvalues --   -0.56790  -0.51190  -0.46969  -0.46680  -0.45568
 Alpha  occ. eigenvalues --   -0.43205  -0.40885  -0.38615  -0.37992  -0.35963
 Alpha  occ. eigenvalues --   -0.35454  -0.31921  -0.30621  -0.29518
 Alpha virt. eigenvalues --    0.03094   0.04735   0.05535   0.08193   0.09415
 Alpha virt. eigenvalues --    0.10344   0.11115   0.11629   0.12613   0.13238
 Alpha virt. eigenvalues --    0.14749   0.15067   0.15796   0.17107   0.17899
 Alpha virt. eigenvalues --    0.20860   0.21966   0.23541   0.24605   0.25170
 Alpha virt. eigenvalues --    0.26821   0.27724   0.28720   0.29795   0.31577
 Alpha virt. eigenvalues --    0.35031   0.37081   0.38337   0.39652   0.41593
 Alpha virt. eigenvalues --    0.42258   0.43118   0.43889   0.44806   0.45471
 Alpha virt. eigenvalues --    0.46458   0.47318   0.47721   0.49448   0.50715
 Alpha virt. eigenvalues --    0.52763   0.54088   0.55186   0.56449   0.57251
 Alpha virt. eigenvalues --    0.60775   0.63023   0.66095   0.66810   0.67930
 Alpha virt. eigenvalues --    0.74293   0.74470   0.75244   0.77311   0.80373
 Alpha virt. eigenvalues --    0.83025   0.83817   0.87607   0.88999   0.91663
 Alpha virt. eigenvalues --    0.93013   0.95629   0.97690   0.99588   1.02099
 Alpha virt. eigenvalues --    1.04344   1.06293   1.07578   1.08000   1.10910
 Alpha virt. eigenvalues --    1.13507   1.15122   1.15710   1.20957   1.21294
 Alpha virt. eigenvalues --    1.23745   1.28195   1.33948   1.35318   1.38958
 Alpha virt. eigenvalues --    1.42505   1.47442   1.48416   1.50843   1.51723
 Alpha virt. eigenvalues --    1.53786   1.54856   1.56140   1.56641   1.58213
 Alpha virt. eigenvalues --    1.58851   1.61865   1.62633   1.63383   1.67556
 Alpha virt. eigenvalues --    1.69100   1.71612   1.74078   1.77862   1.80649
 Alpha virt. eigenvalues --    1.81811   1.82634   1.86141   1.89876   1.92406
 Alpha virt. eigenvalues --    1.93825   1.96370   1.99294   2.01744   2.03242
 Alpha virt. eigenvalues --    2.03897   2.09964   2.10441   2.13680   2.15371
 Alpha virt. eigenvalues --    2.17070   2.20195   2.23645   2.25741   2.31220
 Alpha virt. eigenvalues --    2.32991   2.33813   2.34779   2.35270   2.35583
 Alpha virt. eigenvalues --    2.36478   2.40956   2.44798   2.47412   2.48495
 Alpha virt. eigenvalues --    2.51434   2.52984   2.54967   2.56148   2.58517
 Alpha virt. eigenvalues --    2.59742   2.61294   2.66058   2.67283   2.71986
 Alpha virt. eigenvalues --    2.73515   2.76225   2.80506   2.81842   2.82276
 Alpha virt. eigenvalues --    2.84065   2.92089   2.97038   3.00852   3.03671
 Alpha virt. eigenvalues --    3.04590   3.09193   3.11472   3.11928   3.15486
 Alpha virt. eigenvalues --    3.21587   3.22172   3.23997   3.26806   3.30492
 Alpha virt. eigenvalues --    3.32016   3.32868   3.36176   3.39678   3.44253
 Alpha virt. eigenvalues --    3.44938   3.45416   3.49444   3.53718   3.54210
 Alpha virt. eigenvalues --    3.58746   3.59428   3.62946   3.66611   3.76841
 Alpha virt. eigenvalues --    3.81546   3.88008   3.92333   3.96234   4.04137
 Alpha virt. eigenvalues --    4.19136   4.24478   4.25046   4.34497   4.36878
 Alpha virt. eigenvalues --    4.42367   4.46993   4.53660   4.57182   4.79677
 Alpha virt. eigenvalues --    5.15708   5.17029   5.18322   5.18487   5.28288
 Alpha virt. eigenvalues --    5.29411   5.38652   5.41821   5.45607   5.49885
 Alpha virt. eigenvalues --    5.79958   5.86656   6.03494   6.22782   6.38588
 Alpha virt. eigenvalues --    6.41975   6.53296   6.58931   6.60616   6.66239
 Alpha virt. eigenvalues --    6.68260   6.78742   6.82608   6.97616   7.06256
 Alpha virt. eigenvalues --    7.15699   7.22839  11.90520  22.37675  22.40817
 Alpha virt. eigenvalues --   22.45447  43.61485  43.93296
          Condensed to atoms (all electrons):
              1          2          3          4          5          6
     1  H    0.567459   0.396603  -0.027224  -0.025959  -0.026283  -0.006835
     2  C    0.396603   4.969033   0.258455   0.409948   0.409200  -0.023687
     3  C   -0.027224   0.258455   5.095991  -0.036721  -0.040069   0.372425
     4  H   -0.025959   0.409948  -0.036721   0.536799  -0.022916  -0.003838
     5  H   -0.026283   0.409200  -0.040069  -0.022916   0.557199   0.007923
     6  H   -0.006835  -0.023687   0.372425  -0.003838   0.007923   0.585562
     7  Si   0.005978  -0.013266   0.422510  -0.007806  -0.007230  -0.019900
     8  H   -0.007276  -0.030369   0.389462   0.007649  -0.003719  -0.026646
     9  O   -0.000114   0.004369  -0.041352   0.000001  -0.000032  -0.000128
    10  O    0.000037  -0.000424  -0.036631   0.007434  -0.000537   0.000870
    11  H   -0.000306   0.000070  -0.039842   0.000634   0.003240   0.003143
    12  H   -0.000002   0.000152  -0.003082  -0.000010   0.000011   0.001616
    13  C    0.000000   0.000181   0.001121  -0.000149   0.000046   0.000161
    14  H   -0.000007   0.000200  -0.000331  -0.000197   0.000000   0.000029
    15  H    0.000001  -0.000247   0.000082   0.000050   0.000112   0.000041
    16  H    0.000004  -0.000070   0.000663   0.000071  -0.000013  -0.000047
              7          8          9         10         11         12
     1  H    0.005978  -0.007276  -0.000114   0.000037  -0.000306  -0.000002
     2  C   -0.013266  -0.030369   0.004369  -0.000424   0.000070   0.000152
     3  C    0.422510   0.389462  -0.041352  -0.036631  -0.039842  -0.003082
     4  H   -0.007806   0.007649   0.000001   0.007434   0.000634  -0.000010
     5  H   -0.007230  -0.003719  -0.000032  -0.000537   0.003240   0.000011
     6  H   -0.019900  -0.026646  -0.000128   0.000870   0.003143   0.001616
     7  Si  11.881831  -0.028472   0.475308   0.452201   0.385498  -0.027818
     8  H   -0.028472   0.574494  -0.000297   0.001539   0.001444  -0.000032
     9  O    0.475308  -0.000297   7.846161  -0.032745  -0.016650   0.299475
    10  O    0.452201   0.001539  -0.032745   7.839418  -0.027246  -0.001004
    11  H    0.385498   0.001444  -0.016650  -0.027246   0.741244   0.004099
    12  H   -0.027818  -0.000032   0.299475  -0.001004   0.004099   0.406668
    13  C   -0.050551  -0.000113  -0.006958   0.262732   0.003051   0.000888
    14  H    0.007918   0.000001   0.000074  -0.040701  -0.000279   0.000031
    15  H   -0.017281   0.000006  -0.000579  -0.043232   0.010406  -0.000072
    16  H   -0.005749   0.000003   0.006667  -0.043320  -0.002040   0.000311
             13         14         15         16
     1  H    0.000000  -0.000007   0.000001   0.000004
     2  C    0.000181   0.000200  -0.000247  -0.000070
     3  C    0.001121  -0.000331   0.000082   0.000663
     4  H   -0.000149  -0.000197   0.000050   0.000071
     5  H    0.000046   0.000000   0.000112  -0.000013
     6  H    0.000161   0.000029   0.000041  -0.000047
     7  Si  -0.050551   0.007918  -0.017281  -0.005749
     8  H   -0.000113   0.000001   0.000006   0.000003
     9  O   -0.006958   0.000074  -0.000579   0.006667
    10  O    0.262732  -0.040701  -0.043232  -0.043320
    11  H    0.003051  -0.000279   0.010406  -0.002040
    12  H    0.000888   0.000031  -0.000072   0.000311
    13  C    4.768371   0.401797   0.418928   0.412071
    14  H    0.401797   0.567575  -0.030866  -0.033489
    15  H    0.418928  -0.030866   0.592033  -0.047557
    16  H    0.412071  -0.033489  -0.047557   0.592910
 Mulliken atomic charges:
              1
     1  H    0.123924
     2  C   -0.380145
     3  C   -0.315456
     4  H    0.135010
     5  H    0.123069
     6  H    0.109312
     7  Si   0.546830
     8  H    0.122324
     9  O   -0.533203
    10  O   -0.338393
    11  H   -0.066466
    12  H    0.318768
    13  C   -0.211577
    14  H    0.128244
    15  H    0.118174
    16  H    0.119586
 Sum of Mulliken atomic charges =   0.00000
 Mulliken charges with hydrogens summed into heavy atoms:
              1
     2  C    0.001857
     3  C   -0.083821
     7  Si   0.480364
     9  O   -0.214435
    10  O   -0.338393
    13  C    0.154428
 Sum of Mulliken charges with hydrogens summed into heavy atoms =   0.00000
 Electronic spatial extent (au):  <R**2>=            891.8356
 Charge=              0.0000 electrons
 Dipole moment (field-independent basis, Debye):
    X=              0.0224    Y=             -0.1347    Z=             -1.1309  Tot=              1.1391
 Quadrupole moment (field-independent basis, Debye-Ang):
   XX=            -42.3339   YY=            -46.4280   ZZ=            -44.0405
   XY=             -2.4526   XZ=             -1.0073   YZ=             -3.9340
 Traceless Quadrupole moment (field-independent basis, Debye-Ang):
   XX=              1.9336   YY=             -2.1605   ZZ=              0.2269
   XY=             -2.4526   XZ=             -1.0073   YZ=             -3.9340
 Octapole moment (field-independent basis, Debye-Ang**2):
  XXX=             14.0073  YYY=              0.5898  ZZZ=             -7.9112  XYY=              3.3184
  XXY=             -3.1156  XXZ=             -2.4286  XZZ=              3.6072  YZZ=              5.4848
  YYZ=             -9.3050  XYZ=             -3.7477
 Hexadecapole moment (field-independent basis, Debye-Ang**3):
 XXXX=           -719.4007 YYYY=           -356.6378 ZZZZ=           -111.5934 XXXY=            -10.9878
 XXXZ=             -3.2947 YYYX=             -8.8354 YYYZ=            -16.2081 ZZZX=             -3.5650
 ZZZY=             -9.8329 XXYY=           -179.1035 XXZZ=           -138.6871 YYZZ=            -67.9940
 XXYZ=             -1.3659 YYXZ=             -9.7605 ZZXY=              3.7172
 N-N= 3.278437238062D+02 E-N=-1.979711299195D+03  KE= 5.582399521869D+02
 1\1\GINC-TARSUS2\SP\RPBE1PBE\def2TZVP\C3H10O2Si1\RENATO\29-Jun-2018\0\
 \#SP PBE1PBE/Def2TZVP geom=connectivity\\Structure: 28\\0,1\H,0,0.,0.,
 0.\C,0,1.093,0.,0.\C,0,1.655,1.421,0.\H,0,1.41,-0.56,-0.885\H,0,1.424,
 -0.557,0.88\H,0,1.308,1.969,-0.883\Si,0,3.513,1.515,0.035\H,0,1.282,1.
 975,0.868\O,0,4.077,3.065,0.049\O,0,4.027,0.691,-1.289\H,0,4.105,0.923
 ,1.262\H,0,3.771,3.653,-0.642\C,0,5.383,0.458,-1.588\H,0,5.436,-0.172,
 -2.479\H,0,5.891,-0.06,-0.767\H,0,5.916,1.393,-1.789\\Version=EM64L-G0
 9RevC.01\State=1-A\HF=-560.0614871\RMSD=7.234e-09\Dipole=-0.1421678,0.
 1253262,-0.4061071\Quadrupole=0.8026168,0.4087799,-1.2113967,-2.065701
 9,-2.0135172,-2.3059308\PG=C01 [X(C3H10O2Si1)]\\@


 BLACK HOLES SUCK.
 Job cpu time:  0 days  0 hours  7 minutes 32.4 seconds.
 File lengths (MBytes):  RWF=     40 Int=      0 D2E=      0 Chk=      3 Scr=      1
 Normal termination of Gaussian 09 at Fri Jun 29 11:45:57 2018.
