 Entering Gaussian System, Link 0=g09
 Initial command:
 /usr/local/gaussian09/g09/l1.exe /scratch/renato/Gau-26844.inp -scrdir=/scratch/renato/
 Entering Link 1 = /usr/local/gaussian09/g09/l1.exe PID=     26846.
  
 Copyright (c) 1988,1990,1992,1993,1995,1998,2003,2009,2011,
            Gaussian, Inc.  All Rights Reserved.
  
 This is part of the Gaussian(R) 09 program.  It is based on
 the Gaussian(R) 03 system (copyright 2003, Gaussian, Inc.),
 the Gaussian(R) 98 system (copyright 1998, Gaussian, Inc.),
 the Gaussian(R) 94 system (copyright 1995, Gaussian, Inc.),
 the Gaussian 92(TM) system (copyright 1992, Gaussian, Inc.),
 the Gaussian 90(TM) system (copyright 1990, Gaussian, Inc.),
 the Gaussian 88(TM) system (copyright 1988, Gaussian, Inc.),
 the Gaussian 86(TM) system (copyright 1986, Carnegie Mellon
 University), and the Gaussian 82(TM) system (copyright 1983,
 Carnegie Mellon University). Gaussian is a federally registered
 trademark of Gaussian, Inc.
  
 This software contains proprietary and confidential information,
 including trade secrets, belonging to Gaussian, Inc.
  
 This software is provided under written license and may be
 used, copied, transmitted, or stored only in accord with that
 written license.
  
 The following legend is applicable only to US Government
 contracts under FAR:
  
                    RESTRICTED RIGHTS LEGEND
  
 Use, reproduction and disclosure by the US Government is
 subject to restrictions as set forth in subparagraphs (a)
 and (c) of the Commercial Computer Software - Restricted
 Rights clause in FAR 52.227-19.
  
 Gaussian, Inc.
 340 Quinnipiac St., Bldg. 40, Wallingford CT 06492
  
  
 ---------------------------------------------------------------
 Warning -- This program may not be used in any manner that
 competes with the business of Gaussian, Inc. or will provide
 assistance to any competitor of Gaussian, Inc.  The licensee
 of this program is prohibited from giving any competitor of
 Gaussian, Inc. access to this program.  By using this program,
 the user acknowledges that Gaussian, Inc. is engaged in the
 business of creating and licensing software in the field of
 computational chemistry and represents and warrants to the
 licensee that it is not a competitor of Gaussian, Inc. and that
 it will not use this program in any manner prohibited above.
 ---------------------------------------------------------------
  

 Cite this work as:
 Gaussian 09, Revision C.01,
 M. J. Frisch, G. W. Trucks, H. B. Schlegel, G. E. Scuseria, 
 M. A. Robb, J. R. Cheeseman, G. Scalmani, V. Barone, B. Mennucci, 
 G. A. Petersson, H. Nakatsuji, M. Caricato, X. Li, H. P. Hratchian, 
 A. F. Izmaylov, J. Bloino, G. Zheng, J. L. Sonnenberg, M. Hada, 
 M. Ehara, K. Toyota, R. Fukuda, J. Hasegawa, M. Ishida, T. Nakajima, 
 Y. Honda, O. Kitao, H. Nakai, T. Vreven, J. A. Montgomery, Jr., 
 J. E. Peralta, F. Ogliaro, M. Bearpark, J. J. Heyd, E. Brothers, 
 K. N. Kudin, V. N. Staroverov, T. Keith, R. Kobayashi, J. Normand, 
 K. Raghavachari, A. Rendell, J. C. Burant, S. S. Iyengar, J. Tomasi, 
 M. Cossi, N. Rega, J. M. Millam, M. Klene, J. E. Knox, J. B. Cross, 
 V. Bakken, C. Adamo, J. Jaramillo, R. Gomperts, R. E. Stratmann, 
 O. Yazyev, A. J. Austin, R. Cammi, C. Pomelli, J. W. Ochterski, 
 R. L. Martin, K. Morokuma, V. G. Zakrzewski, G. A. Voth, 
 P. Salvador, J. J. Dannenberg, S. Dapprich, A. D. Daniels, 
 O. Farkas, J. B. Foresman, J. V. Ortiz, J. Cioslowski, 
 and D. J. Fox, Gaussian, Inc., Wallingford CT, 2010.
 
 ******************************************
 Gaussian 09:  EM64L-G09RevC.01 23-Sep-2011
                29-Jun-2018 
 ******************************************
 %nproc=2
 Will use up to    2 processors via shared memory.
 %mem=256MB
 %RWF=d23.rwf
 %chk=d2320
 %NoSave
 --------------------------------------
 #SP PBE1PBE/Def2TZVP geom=connectivity
 --------------------------------------
 1/38=1,57=2/1;
 2/12=2,17=6,18=5,40=1/2;
 3/5=44,7=101,11=2,16=1,25=1,30=1,74=-13/1,2,3;
 4//1;
 5/5=2,38=5/2;
 6/7=2,8=2,9=2,10=2,28=1/1;
 99/5=1,9=1/99;
 -------------
 Structure: 20
 -------------
 Charge =  0 Multiplicity = 1
 Symbolic Z-Matrix:
 H                     0.        0.        0. 
 C                     1.093     0.        0. 
 C                     1.655     1.421     0. 
 H                     1.41     -0.56     -0.885 
 H                     1.424    -0.557     0.88 
 H                     1.308     1.969    -0.883 
 Si                    3.513     1.515     0.035 
 H                     1.282     1.975     0.868 
 O                     4.088     3.007    -0.369 
 O                     4.038     0.356    -1.004 
 H                     4.084     1.282     1.386 
 H                     3.795     3.383    -1.201 
 C                     5.396     0.046    -1.207 
 H                     5.457    -0.805    -1.89 
 H                     5.89     -0.228    -0.268 
 H                     5.939     0.888    -1.649 
 
                          Input orientation:                          
 ---------------------------------------------------------------------
 Center     Atomic      Atomic             Coordinates (Angstroms)
 Number     Number       Type             X           Y           Z
 ---------------------------------------------------------------------
      1          1           0        0.000000    0.000000    0.000000
      2          6           0        1.093000    0.000000    0.000000
      3          6           0        1.655000    1.421000    0.000000
      4          1           0        1.410000   -0.560000   -0.885000
      5          1           0        1.424000   -0.557000    0.880000
      6          1           0        1.308000    1.969000   -0.883000
      7         14           0        3.513000    1.515000    0.035000
      8          1           0        1.282000    1.975000    0.868000
      9          8           0        4.088000    3.007000   -0.369000
     10          8           0        4.038000    0.356000   -1.004000
     11          1           0        4.084000    1.282000    1.386000
     12          1           0        3.795000    3.383000   -1.201000
     13          6           0        5.396000    0.046000   -1.207000
     14          1           0        5.457000   -0.805000   -1.890000
     15          1           0        5.890000   -0.228000   -0.268000
     16          1           0        5.939000    0.888000   -1.649000
 ---------------------------------------------------------------------
                    Distance matrix (angstroms):
                    1          2          3          4          5
     1  H    0.000000
     2  C    1.093000   0.000000
     3  C    2.181345   1.528098   0.000000
     4  H    1.756395   1.094218   2.183486   0.000000
     5  H    1.764207   1.092799   2.177210   1.765058   0.000000
     6  H    2.523393   2.168611   1.095629   2.531057   3.082580
     7  Si   3.825914   2.855320   1.860706   3.094291   3.061230
     8  H    2.509497   2.165588   1.095203   3.084740   2.536007
     9  O    5.088217   4.260075   2.927635   4.490148   4.621579
    10  O    4.176146   3.131737   2.796593   2.785606   3.349033
    11  H    4.499286   3.537033   2.800064   3.962408   3.273157
    12  H    5.223898   4.493094   3.141886   4.619018   5.047356
    13  C    5.529537   4.469315   4.164439   4.044640   4.527247
    14  H    5.830864   4.823341   4.793994   4.177111   4.898928
    15  H    5.900501   4.809887   4.552609   4.534458   4.622910
    16  H    6.227316   5.195331   4.621249   4.815832   5.372996
                    6          7          8          9         10
     6  H    0.000000
     7  Si   2.431227   0.000000
     8  H    1.751203   2.425459   0.000000
     9  O    3.011651   1.649213   3.235557   0.000000
    10  O    3.173218   1.642689   3.704198   2.726449   0.000000
    11  H    3.650549   1.485103   2.932538   2.460826   2.563531
    12  H    2.878487   2.257575   3.546603   0.958879   3.043121
    13  C    4.529310   2.691879   4.995164   3.343745   1.407648
    14  H    5.091495   3.587083   5.724123   4.326540   2.036290
    15  H    5.118570   2.963104   5.232339   3.704407   2.076694
    16  H    4.816791   3.019017   5.404119   3.091078   2.076740
                   11         12         13         14         15
    11  H    0.000000
    12  H    3.345189   0.000000
    13  C    3.157956   3.701190   0.000000
    14  H    4.119815   4.558104   1.092891   0.000000
    15  H    2.877056   4.277714   1.095825   1.775191   0.000000
    16  H    3.578755   3.320010   1.095069   1.776697   1.776237
                   16
    16  H    0.000000
 Stoichiometry    C3H10O2Si
 Framework group  C1[X(C3H10O2Si)]
 Deg. of freedom    42
 Full point group                 C1      NOp   1
 Largest Abelian subgroup         C1      NOp   1
 Largest concise Abelian subgroup C1      NOp   1
                         Standard orientation:                         
 ---------------------------------------------------------------------
 Center     Atomic      Atomic             Coordinates (Angstroms)
 Number     Number       Type             X           Y           Z
 ---------------------------------------------------------------------
      1          1           0       -3.375009   -1.007500   -0.323218
      2          6           0       -2.321526   -1.007978   -0.031976
      3          6           0       -1.701681    0.382631   -0.162678
      4          1           0       -1.816052   -1.737560   -0.671914
      5          1           0       -2.262567   -1.373009    0.996366
      6          1           0       -1.775775    0.738244   -1.196337
      7         14           0        0.085190    0.480995    0.346874
      8          1           0       -2.257028    1.102881    0.447484
      9          8           0        0.826802    1.858319   -0.175520
     10          8           0        0.798346   -0.866522   -0.264707
     11          1           0        0.270494    0.529487    1.819573
     12          1           0        0.781998    2.056007   -1.112729
     13          6           0        2.143123   -1.212132   -0.033186
     14          1           0        2.333181   -2.185041   -0.493333
     15          1           0        2.359374   -1.288149    1.038397
     16          1           0        2.828046   -0.478790   -0.471670
 ---------------------------------------------------------------------
 Rotational constants (GHZ):      3.6407828      2.1181966      1.4517565
 Standard basis: def2TZVP (5D, 7F)
 There are   252 symmetry adapted basis functions of A   symmetry.
 Integral buffers will be    131072 words long.
 Raffenetti 2 integral format.
 Two-electron integral symmetry is turned on.
   252 basis functions,   404 primitive gaussians,   282 cartesian basis functions
    29 alpha electrons       29 beta electrons
       nuclear repulsion energy       328.5628604997 Hartrees.
 NAtoms=   16 NActive=   16 NUniq=   16 SFac= 1.00D+00 NAtFMM=   60 NAOKFM=F Big=F
 One-electron integrals computed using PRISM.
   1 Symmetry operations used in ECPInt.
 ECPInt:  NShTT=    5886 NPrTT=   17754 LenC2=    5774 LenP2D=   13891.
 LDataN:  DoStor=T MaxTD1= 6 Len=  172
 NBasis=   252 RedAO= T  NBF=   252
 NBsUse=   252 1.00D-06 NBFU=   252
 Harris functional with IExCor= 1009 diagonalized for initial guess.
 ExpMin= 7.01D-02 ExpMax= 4.48D+04 ExpMxC= 1.53D+03 IAcc=2 IRadAn=         4 AccDes= 0.00D+00
 HarFok:  IExCor= 1009 AccDes= 0.00D+00 IRadAn=         4 IDoV= 1
 ScaDFX=  1.000000  1.000000  1.000000  1.000000
 FoFCou: FMM=F IPFlag=           0 FMFlag=      100000 FMFlg1=           0
         NFxFlg=           0 DoJE=T BraDBF=F KetDBF=T FulRan=T
         Omega=  0.000000  0.000000  1.000000  0.000000  0.000000 ICntrl=     500 IOpCl=  0
         NMat0=    1 NMatS0=    1 NMatT0=    0 NMatD0=    1 NMtDS0=    0 NMtDT0=    0
         I1Cent=           4 NGrid=           0.
 Petite list used in FoFCou.
 Initial guess orbital symmetries:
       Occupied  (A) (A) (A) (A) (A) (A) (A) (A) (A) (A) (A) (A)
                 (A) (A) (A) (A) (A) (A) (A) (A) (A) (A) (A) (A)
                 (A) (A) (A) (A) (A)
       Virtual   (A) (A) (A) (A) (A) (A) (A) (A) (A) (A) (A) (A)
                 (A) (A) (A) (A) (A) (A) (A) (A) (A) (A) (A) (A)
                 (A) (A) (A) (A) (A) (A) (A) (A) (A) (A) (A) (A)
                 (A) (A) (A) (A) (A) (A) (A) (A) (A) (A) (A) (A)
                 (A) (A) (A) (A) (A) (A) (A) (A) (A) (A) (A) (A)
                 (A) (A) (A) (A) (A) (A) (A) (A) (A) (A) (A) (A)
                 (A) (A) (A) (A) (A) (A) (A) (A) (A) (A) (A) (A)
                 (A) (A) (A) (A) (A) (A) (A) (A) (A) (A) (A) (A)
                 (A) (A) (A) (A) (A) (A) (A) (A) (A) (A) (A) (A)
                 (A) (A) (A) (A) (A) (A) (A) (A) (A) (A) (A) (A)
                 (A) (A) (A) (A) (A) (A) (A) (A) (A) (A) (A) (A)
                 (A) (A) (A) (A) (A) (A) (A) (A) (A) (A) (A) (A)
                 (A) (A) (A) (A) (A) (A) (A) (A) (A) (A) (A) (A)
                 (A) (A) (A) (A) (A) (A) (A) (A) (A) (A) (A) (A)
                 (A) (A) (A) (A) (A) (A) (A) (A) (A) (A) (A) (A)
                 (A) (A) (A) (A) (A) (A) (A) (A) (A) (A) (A) (A)
                 (A) (A) (A) (A) (A) (A) (A) (A) (A) (A) (A) (A)
                 (A) (A) (A) (A) (A) (A) (A) (A) (A) (A) (A) (A)
                 (A) (A) (A) (A) (A) (A) (A)
 The electronic state of the initial guess is 1-A.
 Requested convergence on RMS density matrix=1.00D-08 within 128 cycles.
 Requested convergence on MAX density matrix=1.00D-06.
 Requested convergence on             energy=1.00D-06.
 No special actions if energy rises.
 Integral accuracy reduced to 1.0D-05 until final iterations.
 Initial convergence to 1.0D-05 achieved.  Increase integral accuracy.
 SCF Done:  E(RPBE1PBE) =  -560.060923039     A.U. after   12 cycles
             Convg  =    0.7459D-08             -V/T =  2.0033

 **********************************************************************

            Population analysis using the SCF density.

 **********************************************************************

 Orbital symmetries:
       Occupied  (A) (A) (A) (A) (A) (A) (A) (A) (A) (A) (A) (A)
                 (A) (A) (A) (A) (A) (A) (A) (A) (A) (A) (A) (A)
                 (A) (A) (A) (A) (A)
       Virtual   (A) (A) (A) (A) (A) (A) (A) (A) (A) (A) (A) (A)
                 (A) (A) (A) (A) (A) (A) (A) (A) (A) (A) (A) (A)
                 (A) (A) (A) (A) (A) (A) (A) (A) (A) (A) (A) (A)
                 (A) (A) (A) (A) (A) (A) (A) (A) (A) (A) (A) (A)
                 (A) (A) (A) (A) (A) (A) (A) (A) (A) (A) (A) (A)
                 (A) (A) (A) (A) (A) (A) (A) (A) (A) (A) (A) (A)
                 (A) (A) (A) (A) (A) (A) (A) (A) (A) (A) (A) (A)
                 (A) (A) (A) (A) (A) (A) (A) (A) (A) (A) (A) (A)
                 (A) (A) (A) (A) (A) (A) (A) (A) (A) (A) (A) (A)
                 (A) (A) (A) (A) (A) (A) (A) (A) (A) (A) (A) (A)
                 (A) (A) (A) (A) (A) (A) (A) (A) (A) (A) (A) (A)
                 (A) (A) (A) (A) (A) (A) (A) (A) (A) (A) (A) (A)
                 (A) (A) (A) (A) (A) (A) (A) (A) (A) (A) (A) (A)
                 (A) (A) (A) (A) (A) (A) (A) (A) (A) (A) (A) (A)
                 (A) (A) (A) (A) (A) (A) (A) (A) (A) (A) (A) (A)
                 (A) (A) (A) (A) (A) (A) (A) (A) (A) (A) (A) (A)
                 (A) (A) (A) (A) (A) (A) (A) (A) (A) (A) (A) (A)
                 (A) (A) (A) (A) (A) (A) (A) (A) (A) (A) (A) (A)
                 (A) (A) (A) (A) (A) (A) (A)
 The electronic state is 1-A.
 Alpha  occ. eigenvalues --  -66.25400 -19.20294 -19.20046 -10.26465 -10.21147
 Alpha  occ. eigenvalues --  -10.20877  -5.33061  -3.66591  -3.66470  -3.66334
 Alpha  occ. eigenvalues --   -1.04474  -1.02306  -0.77938  -0.70460  -0.63782
 Alpha  occ. eigenvalues --   -0.56756  -0.51208  -0.47011  -0.46743  -0.45527
 Alpha  occ. eigenvalues --   -0.42892  -0.40930  -0.38743  -0.38009  -0.35696
 Alpha  occ. eigenvalues --   -0.35581  -0.31851  -0.30674  -0.29487
 Alpha virt. eigenvalues --    0.03130   0.04578   0.05521   0.08355   0.08970
 Alpha virt. eigenvalues --    0.10538   0.11218   0.11544   0.12487   0.13222
 Alpha virt. eigenvalues --    0.14861   0.14993   0.15765   0.17591   0.18471
 Alpha virt. eigenvalues --    0.20768   0.21793   0.23454   0.24541   0.25008
 Alpha virt. eigenvalues --    0.26732   0.27730   0.28661   0.29746   0.31776
 Alpha virt. eigenvalues --    0.35462   0.36985   0.38728   0.39717   0.41595
 Alpha virt. eigenvalues --    0.42250   0.42693   0.43934   0.44771   0.45232
 Alpha virt. eigenvalues --    0.46241   0.47255   0.47712   0.49769   0.51197
 Alpha virt. eigenvalues --    0.52465   0.54412   0.54989   0.56036   0.57048
 Alpha virt. eigenvalues --    0.61157   0.63517   0.64758   0.66537   0.69836
 Alpha virt. eigenvalues --    0.71426   0.74712   0.77459   0.77780   0.78879
 Alpha virt. eigenvalues --    0.82341   0.83559   0.88094   0.89345   0.91338
 Alpha virt. eigenvalues --    0.93137   0.94959   0.97578   0.99933   1.02775
 Alpha virt. eigenvalues --    1.04139   1.06772   1.07906   1.08619   1.10042
 Alpha virt. eigenvalues --    1.13222   1.14636   1.15605   1.20034   1.21330
 Alpha virt. eigenvalues --    1.23218   1.28164   1.34953   1.35605   1.39298
 Alpha virt. eigenvalues --    1.42058   1.47287   1.48778   1.51046   1.51349
 Alpha virt. eigenvalues --    1.53205   1.55512   1.55973   1.56790   1.58944
 Alpha virt. eigenvalues --    1.59095   1.61756   1.62174   1.63778   1.67428
 Alpha virt. eigenvalues --    1.68109   1.71400   1.74437   1.77548   1.80345
 Alpha virt. eigenvalues --    1.81376   1.83814   1.85754   1.90285   1.93157
 Alpha virt. eigenvalues --    1.94386   1.95723   1.98029   2.02227   2.03488
 Alpha virt. eigenvalues --    2.03618   2.09477   2.10192   2.14260   2.16297
 Alpha virt. eigenvalues --    2.17166   2.18953   2.23121   2.25753   2.30768
 Alpha virt. eigenvalues --    2.32675   2.33657   2.34282   2.35203   2.35785
 Alpha virt. eigenvalues --    2.36580   2.41207   2.45784   2.47081   2.49395
 Alpha virt. eigenvalues --    2.51581   2.53119   2.54444   2.56048   2.58308
 Alpha virt. eigenvalues --    2.59667   2.60554   2.66363   2.68150   2.70803
 Alpha virt. eigenvalues --    2.72956   2.75799   2.81045   2.82272   2.83468
 Alpha virt. eigenvalues --    2.84230   2.91724   2.97980   3.00574   3.03432
 Alpha virt. eigenvalues --    3.05260   3.08968   3.09863   3.12319   3.16388
 Alpha virt. eigenvalues --    3.21797   3.22604   3.24189   3.26984   3.29390
 Alpha virt. eigenvalues --    3.31976   3.33786   3.37250   3.40418   3.43390
 Alpha virt. eigenvalues --    3.44846   3.45571   3.49432   3.52962   3.53877
 Alpha virt. eigenvalues --    3.58617   3.60243   3.62660   3.66275   3.77148
 Alpha virt. eigenvalues --    3.81826   3.87905   3.93002   3.96013   4.04225
 Alpha virt. eigenvalues --    4.19043   4.24523   4.25029   4.34668   4.36816
 Alpha virt. eigenvalues --    4.42741   4.46935   4.53665   4.56883   4.79485
 Alpha virt. eigenvalues --    5.15738   5.17025   5.18171   5.18530   5.28332
 Alpha virt. eigenvalues --    5.29204   5.38674   5.41774   5.45405   5.49807
 Alpha virt. eigenvalues --    5.79933   5.86833   6.03280   6.22326   6.39195
 Alpha virt. eigenvalues --    6.41891   6.53428   6.59014   6.61080   6.66144
 Alpha virt. eigenvalues --    6.67962   6.78573   6.82492   6.97718   7.05952
 Alpha virt. eigenvalues --    7.16086   7.22618  11.90030  22.37768  22.40637
 Alpha virt. eigenvalues --   22.44936  43.60834  43.92654
          Condensed to atoms (all electrons):
              1          2          3          4          5          6
     1  H    0.572296   0.396495  -0.027816  -0.027449  -0.026977  -0.007018
     2  C    0.396495   4.955895   0.262946   0.409740   0.407858  -0.024691
     3  C   -0.027816   0.262946   5.098238  -0.035563  -0.039888   0.369904
     4  H   -0.027449   0.409740  -0.035563   0.535965  -0.020990  -0.003663
     5  H   -0.026977   0.407858  -0.039888  -0.020990   0.559856   0.008072
     6  H   -0.007018  -0.024691   0.369904  -0.003663   0.008072   0.591474
     7  Si   0.005907  -0.012463   0.422261  -0.008701  -0.007172  -0.020286
     8  H   -0.007409  -0.030346   0.390648   0.007395  -0.003597  -0.025931
     9  O   -0.000105   0.004465  -0.042473  -0.000039  -0.000054   0.000108
    10  O    0.000322   0.000944  -0.037644   0.007875  -0.001004   0.000528
    11  H   -0.000311   0.000526  -0.040035   0.000671   0.002567   0.003135
    12  H   -0.000004   0.000207  -0.003699  -0.000015   0.000012   0.002256
    13  C   -0.000001  -0.000084   0.001457  -0.000058   0.000026   0.000002
    14  H   -0.000012   0.000195  -0.000254  -0.000238   0.000003   0.000026
    15  H    0.000000  -0.000393   0.000160   0.000115   0.000168   0.000020
    16  H    0.000006   0.000030   0.000451   0.000046  -0.000024  -0.000021
              7          8          9         10         11         12
     1  H    0.005907  -0.007409  -0.000105   0.000322  -0.000311  -0.000004
     2  C   -0.012463  -0.030346   0.004465   0.000944   0.000526   0.000207
     3  C    0.422261   0.390648  -0.042473  -0.037644  -0.040035  -0.003699
     4  H   -0.008701   0.007395  -0.000039   0.007875   0.000671  -0.000015
     5  H   -0.007172  -0.003597  -0.000054  -0.001004   0.002567   0.000012
     6  H   -0.020286  -0.025931   0.000108   0.000528   0.003135   0.002256
     7  Si  11.882819  -0.026617   0.476955   0.446296   0.388089  -0.026973
     8  H   -0.026617   0.571179   0.000144   0.001373   0.000909  -0.000098
     9  O    0.476955   0.000144   7.846120  -0.033706  -0.017441   0.299324
    10  O    0.446296   0.001373  -0.033706   7.844096  -0.027488  -0.001092
    11  H    0.388089   0.000909  -0.017441  -0.027488   0.740557   0.004098
    12  H   -0.026973  -0.000098   0.299324  -0.001092   0.004098   0.406200
    13  C   -0.050584  -0.000109  -0.007001   0.264370   0.002690   0.000815
    14  H    0.008370   0.000004   0.000062  -0.041008  -0.000263   0.000027
    15  H   -0.017130   0.000008  -0.000583  -0.043519   0.010274  -0.000064
    16  H   -0.006188  -0.000004   0.006801  -0.042659  -0.002039   0.000333
             13         14         15         16
     1  H   -0.000001  -0.000012   0.000000   0.000006
     2  C   -0.000084   0.000195  -0.000393   0.000030
     3  C    0.001457  -0.000254   0.000160   0.000451
     4  H   -0.000058  -0.000238   0.000115   0.000046
     5  H    0.000026   0.000003   0.000168  -0.000024
     6  H    0.000002   0.000026   0.000020  -0.000021
     7  Si  -0.050584   0.008370  -0.017130  -0.006188
     8  H   -0.000109   0.000004   0.000008  -0.000004
     9  O   -0.007001   0.000062  -0.000583   0.006801
    10  O    0.264370  -0.041008  -0.043519  -0.042659
    11  H    0.002690  -0.000263   0.010274  -0.002039
    12  H    0.000815   0.000027  -0.000064   0.000333
    13  C    4.765711   0.401363   0.419467   0.411803
    14  H    0.401363   0.568329  -0.030919  -0.033594
    15  H    0.419467  -0.030919   0.591911  -0.047651
    16  H    0.411803  -0.033594  -0.047651   0.593437
 Mulliken atomic charges:
              1
     1  H    0.122076
     2  C   -0.371324
     3  C   -0.318692
     4  H    0.134908
     5  H    0.121146
     6  H    0.106085
     7  Si   0.545420
     8  H    0.122453
     9  O   -0.532576
    10  O   -0.337683
    11  H   -0.065939
    12  H    0.318672
    13  C   -0.209864
    14  H    0.127910
    15  H    0.118135
    16  H    0.119274
 Sum of Mulliken atomic charges =   0.00000
 Mulliken charges with hydrogens summed into heavy atoms:
              1
     2  C    0.006806
     3  C   -0.090155
     7  Si   0.479481
     9  O   -0.213904
    10  O   -0.337683
    13  C    0.155455
 Sum of Mulliken charges with hydrogens summed into heavy atoms =   0.00000
 Electronic spatial extent (au):  <R**2>=            881.4516
 Charge=              0.0000 electrons
 Dipole moment (field-independent basis, Debye):
    X=             -0.0315    Y=             -0.2010    Z=             -1.1207  Tot=              1.1390
 Quadrupole moment (field-independent basis, Debye-Ang):
   XX=            -42.6622   YY=            -46.8474   ZZ=            -43.5129
   XY=             -2.8399   XZ=             -1.0808   YZ=             -3.6986
 Traceless Quadrupole moment (field-independent basis, Debye-Ang):
   XX=              1.6786   YY=             -2.5066   ZZ=              0.8279
   XY=             -2.8399   XZ=             -1.0808   YZ=             -3.6986
 Octapole moment (field-independent basis, Debye-Ang**2):
  XXX=             13.2252  YYY=             -0.9827  ZZZ=             -8.9418  XYY=              2.6385
  XXY=             -3.5953  XXZ=             -2.0795  XZZ=              3.5586  YZZ=              5.9760
  YYZ=             -8.6386  XYZ=             -3.1774
 Hexadecapole moment (field-independent basis, Debye-Ang**3):
 XXXX=           -697.2193 YYYY=           -373.9280 ZZZZ=           -109.9007 XXXY=            -11.0095
 XXXZ=             -4.0916 YYYX=            -11.0834 YYYZ=            -15.3451 ZZZX=             -4.5923
 ZZZY=            -12.8516 XXYY=           -178.9987 XXZZ=           -133.8080 YYZZ=            -67.5026
 XXYZ=             -1.5984 YYXZ=             -9.1361 ZZXY=              3.7315
 N-N= 3.285628604997D+02 E-N=-1.981155338241D+03  KE= 5.582394665768D+02
 1\1\GINC-TARSUS2\SP\RPBE1PBE\def2TZVP\C3H10O2Si1\RENATO\29-Jun-2018\0\
 \#SP PBE1PBE/Def2TZVP geom=connectivity\\Structure: 20\\0,1\H,0,0.,0.,
 0.\C,0,1.093,0.,0.\C,0,1.655,1.421,0.\H,0,1.41,-0.56,-0.885\H,0,1.424,
 -0.557,0.88\H,0,1.308,1.969,-0.883\Si,0,3.513,1.515,0.035\H,0,1.282,1.
 975,0.868\O,0,4.088,3.007,-0.369\O,0,4.038,0.356,-1.004\H,0,4.084,1.28
 2,1.386\H,0,3.795,3.383,-1.201\C,0,5.396,0.046,-1.207\H,0,5.457,-0.805
 ,-1.89\H,0,5.89,-0.228,-0.268\H,0,5.939,0.888,-1.649\\Version=EM64L-G0
 9RevC.01\State=1-A\HF=-560.060923\RMSD=7.459e-09\Dipole=-0.1294163,0.0
 08945,-0.4289379\Quadrupole=0.7927945,-0.9050976,0.1123031,-2.5335451,
 -1.3997408,-2.5022649\PG=C01 [X(C3H10O2Si1)]\\@


 WE'RE IN THE POSITION OF A VISITOR FROM ANOTHER
 DIMENSION WHO COMES TO EARTH AND SEES A CHESS MATCH.
 ASSUMING HE KNOWS IT'S A GAME, HE'S GOT TWO PROBLEMS:
 FIRST, FIGURE OUT THE RULES, AND SECOND, FIGURE OUT HOW TO WIN.
 NINETY PERCENT OF SCIENCE (INCLUDING VIRTUALLY ALL OF CHEMISRY)
 IS IN THAT SECOND CATEGORY.  THEY'RE TRYING TO APPLY
 THE LAWS THAT ARE ALREADY KNOWN.

                     -- SHELDON GLASHOW, 1979
 Job cpu time:  0 days  0 hours  8 minutes 17.0 seconds.
 File lengths (MBytes):  RWF=     40 Int=      0 D2E=      0 Chk=      3 Scr=      1
 Normal termination of Gaussian 09 at Fri Jun 29 11:13:05 2018.
