 Entering Gaussian System, Link 0=g09
 Initial command:
 /usr/local/gaussian09/g09/l1.exe /scratch/renato/Gau-26903.inp -scrdir=/scratch/renato/
 Entering Link 1 = /usr/local/gaussian09/g09/l1.exe PID=     26905.
  
 Copyright (c) 1988,1990,1992,1993,1995,1998,2003,2009,2011,
            Gaussian, Inc.  All Rights Reserved.
  
 This is part of the Gaussian(R) 09 program.  It is based on
 the Gaussian(R) 03 system (copyright 2003, Gaussian, Inc.),
 the Gaussian(R) 98 system (copyright 1998, Gaussian, Inc.),
 the Gaussian(R) 94 system (copyright 1995, Gaussian, Inc.),
 the Gaussian 92(TM) system (copyright 1992, Gaussian, Inc.),
 the Gaussian 90(TM) system (copyright 1990, Gaussian, Inc.),
 the Gaussian 88(TM) system (copyright 1988, Gaussian, Inc.),
 the Gaussian 86(TM) system (copyright 1986, Carnegie Mellon
 University), and the Gaussian 82(TM) system (copyright 1983,
 Carnegie Mellon University). Gaussian is a federally registered
 trademark of Gaussian, Inc.
  
 This software contains proprietary and confidential information,
 including trade secrets, belonging to Gaussian, Inc.
  
 This software is provided under written license and may be
 used, copied, transmitted, or stored only in accord with that
 written license.
  
 The following legend is applicable only to US Government
 contracts under FAR:
  
                    RESTRICTED RIGHTS LEGEND
  
 Use, reproduction and disclosure by the US Government is
 subject to restrictions as set forth in subparagraphs (a)
 and (c) of the Commercial Computer Software - Restricted
 Rights clause in FAR 52.227-19.
  
 Gaussian, Inc.
 340 Quinnipiac St., Bldg. 40, Wallingford CT 06492
  
  
 ---------------------------------------------------------------
 Warning -- This program may not be used in any manner that
 competes with the business of Gaussian, Inc. or will provide
 assistance to any competitor of Gaussian, Inc.  The licensee
 of this program is prohibited from giving any competitor of
 Gaussian, Inc. access to this program.  By using this program,
 the user acknowledges that Gaussian, Inc. is engaged in the
 business of creating and licensing software in the field of
 computational chemistry and represents and warrants to the
 licensee that it is not a competitor of Gaussian, Inc. and that
 it will not use this program in any manner prohibited above.
 ---------------------------------------------------------------
  

 Cite this work as:
 Gaussian 09, Revision C.01,
 M. J. Frisch, G. W. Trucks, H. B. Schlegel, G. E. Scuseria, 
 M. A. Robb, J. R. Cheeseman, G. Scalmani, V. Barone, B. Mennucci, 
 G. A. Petersson, H. Nakatsuji, M. Caricato, X. Li, H. P. Hratchian, 
 A. F. Izmaylov, J. Bloino, G. Zheng, J. L. Sonnenberg, M. Hada, 
 M. Ehara, K. Toyota, R. Fukuda, J. Hasegawa, M. Ishida, T. Nakajima, 
 Y. Honda, O. Kitao, H. Nakai, T. Vreven, J. A. Montgomery, Jr., 
 J. E. Peralta, F. Ogliaro, M. Bearpark, J. J. Heyd, E. Brothers, 
 K. N. Kudin, V. N. Staroverov, T. Keith, R. Kobayashi, J. Normand, 
 K. Raghavachari, A. Rendell, J. C. Burant, S. S. Iyengar, J. Tomasi, 
 M. Cossi, N. Rega, J. M. Millam, M. Klene, J. E. Knox, J. B. Cross, 
 V. Bakken, C. Adamo, J. Jaramillo, R. Gomperts, R. E. Stratmann, 
 O. Yazyev, A. J. Austin, R. Cammi, C. Pomelli, J. W. Ochterski, 
 R. L. Martin, K. Morokuma, V. G. Zakrzewski, G. A. Voth, 
 P. Salvador, J. J. Dannenberg, S. Dapprich, A. D. Daniels, 
 O. Farkas, J. B. Foresman, J. V. Ortiz, J. Cioslowski, 
 and D. J. Fox, Gaussian, Inc., Wallingford CT, 2010.
 
 ******************************************
 Gaussian 09:  EM64L-G09RevC.01 23-Sep-2011
                29-Jun-2018 
 ******************************************
 %nproc=2
 Will use up to    2 processors via shared memory.
 %mem=256MB
 %RWF=d23.rwf
 %chk=d2321
 %NoSave
 --------------------------------------
 #SP PBE1PBE/Def2TZVP geom=connectivity
 --------------------------------------
 1/38=1,57=2/1;
 2/12=2,17=6,18=5,40=1/2;
 3/5=44,7=101,11=2,16=1,25=1,30=1,74=-13/1,2,3;
 4//1;
 5/5=2,38=5/2;
 6/7=2,8=2,9=2,10=2,28=1/1;
 99/5=1,9=1/99;
 -------------
 Structure: 21
 -------------
 Charge =  0 Multiplicity = 1
 Symbolic Z-Matrix:
 H                     0.        0.        0. 
 C                     1.093     0.        0. 
 C                     1.655     1.421     0. 
 H                     1.41     -0.56     -0.885 
 H                     1.424    -0.557     0.88 
 H                     1.308     1.969    -0.883 
 Si                    3.513     1.515     0.035 
 H                     1.282     1.975     0.868 
 O                     4.086     3.02     -0.318 
 O                     4.037     0.394    -1.044 
 H                     4.087     1.236     1.376 
 H                     3.792     3.425    -1.135 
 C                     5.395     0.091    -1.261 
 H                     5.455    -0.735    -1.973 
 H                     5.891    -0.215    -0.332 
 H                     5.936     0.948    -1.674 
 
                          Input orientation:                          
 ---------------------------------------------------------------------
 Center     Atomic      Atomic             Coordinates (Angstroms)
 Number     Number       Type             X           Y           Z
 ---------------------------------------------------------------------
      1          1           0        0.000000    0.000000    0.000000
      2          6           0        1.093000    0.000000    0.000000
      3          6           0        1.655000    1.421000    0.000000
      4          1           0        1.410000   -0.560000   -0.885000
      5          1           0        1.424000   -0.557000    0.880000
      6          1           0        1.308000    1.969000   -0.883000
      7         14           0        3.513000    1.515000    0.035000
      8          1           0        1.282000    1.975000    0.868000
      9          8           0        4.086000    3.020000   -0.318000
     10          8           0        4.037000    0.394000   -1.044000
     11          1           0        4.087000    1.236000    1.376000
     12          1           0        3.792000    3.425000   -1.135000
     13          6           0        5.395000    0.091000   -1.261000
     14          1           0        5.455000   -0.735000   -1.973000
     15          1           0        5.891000   -0.215000   -0.332000
     16          1           0        5.936000    0.948000   -1.674000
 ---------------------------------------------------------------------
                    Distance matrix (angstroms):
                    1          2          3          4          5
     1  H    0.000000
     2  C    1.093000   0.000000
     3  C    2.181345   1.528098   0.000000
     4  H    1.756395   1.094218   2.183486   0.000000
     5  H    1.764207   1.092799   2.177210   1.765058   0.000000
     6  H    2.523393   2.168611   1.095629   2.531057   3.082580
     7  Si   3.825914   2.855320   1.860706   3.094291   3.061230
     8  H    2.509497   2.165588   1.095203   3.084740   2.536007
     9  O    5.090866   4.263751   2.927061   4.505426   4.616966
    10  O    4.188382   3.148382   2.796174   2.799380   3.381412
    11  H    4.486050   3.519248   2.800397   3.937520   3.248451
    12  H    5.234321   4.505935   3.141816   4.649371   5.052126
    13  C    5.541158   4.483928   4.164927   4.055293   4.557700
    14  H    5.847220   4.843552   4.793857   4.192421   4.941685
    15  H    5.904264   4.814276   4.553067   4.528156   4.641120
    16  H    6.239958   5.211106   4.620927   4.835417   5.398711
                    6          7          8          9         10
     6  H    0.000000
     7  Si   2.431227   0.000000
     8  H    1.751203   2.425459   0.000000
     9  O    3.023427   1.648625   3.218856   0.000000
    10  O    3.154994   1.641785   3.707469   2.724950   0.000000
    11  H    3.655573   1.485126   2.944862   2.460141   2.562784
    12  H    2.890276   2.257175   3.523437   0.958097   3.042247
    13  C    4.513683   2.692455   4.999887   3.343916   1.408212
    14  H    5.069253   3.586911   5.729687   4.325877   2.036764
    15  H    5.106598   2.963524   5.242040   3.704517   2.077292
    16  H    4.804842   3.018791   5.401501   3.091022   2.076058
                   11         12         13         14         15
    11  H    0.000000
    12  H    3.344229   0.000000
    13  C    3.158427   3.701492   0.000000
    14  H    4.119717   4.557786   1.092163   0.000000
    15  H    2.876992   4.277874   1.096674   1.775775   0.000000
    16  H    3.578302   3.320058   1.094394   1.775740   1.776389
                   16
    16  H    0.000000
 Stoichiometry    C3H10O2Si
 Framework group  C1[X(C3H10O2Si)]
 Deg. of freedom    42
 Full point group                 C1      NOp   1
 Largest Abelian subgroup         C1      NOp   1
 Largest concise Abelian subgroup C1      NOp   1
                         Standard orientation:                         
 ---------------------------------------------------------------------
 Center     Atomic      Atomic             Coordinates (Angstroms)
 Number     Number       Type             X           Y           Z
 ---------------------------------------------------------------------
      1          1           0       -3.381858   -1.001177   -0.320783
      2          6           0       -2.331213   -1.002440   -0.019469
      3          6           0       -1.698877    0.379403   -0.179930
      4          1           0       -1.825661   -1.752261   -0.635506
      5          1           0       -2.284941   -1.341255    1.018449
      6          1           0       -1.760309    0.708786   -1.223067
      7         14           0        0.083840    0.476801    0.344149
      8          1           0       -2.254092    1.119519    0.406101
      9          8           0        0.826780    1.858734   -0.162076
     10          8           0        0.803986   -0.863912   -0.271752
     11          1           0        0.258191    0.514765    1.818516
     12          1           0        0.789341    2.064192   -1.097135
     13          6           0        2.147867   -1.210445   -0.033087
     14          1           0        2.342779   -2.178759   -0.499132
     15          1           0        2.355886   -1.293922    1.040436
     16          1           0        2.834119   -0.472788   -0.460426
 ---------------------------------------------------------------------
 Rotational constants (GHZ):      3.6523427      2.1096035      1.4493847
 Standard basis: def2TZVP (5D, 7F)
 There are   252 symmetry adapted basis functions of A   symmetry.
 Integral buffers will be    131072 words long.
 Raffenetti 2 integral format.
 Two-electron integral symmetry is turned on.
   252 basis functions,   404 primitive gaussians,   282 cartesian basis functions
    29 alpha electrons       29 beta electrons
       nuclear repulsion energy       328.5105127568 Hartrees.
 NAtoms=   16 NActive=   16 NUniq=   16 SFac= 1.00D+00 NAtFMM=   60 NAOKFM=F Big=F
 One-electron integrals computed using PRISM.
   1 Symmetry operations used in ECPInt.
 ECPInt:  NShTT=    5886 NPrTT=   17754 LenC2=    5774 LenP2D=   13885.
 LDataN:  DoStor=T MaxTD1= 6 Len=  172
 NBasis=   252 RedAO= T  NBF=   252
 NBsUse=   252 1.00D-06 NBFU=   252
 Harris functional with IExCor= 1009 diagonalized for initial guess.
 ExpMin= 7.01D-02 ExpMax= 4.48D+04 ExpMxC= 1.53D+03 IAcc=2 IRadAn=         4 AccDes= 0.00D+00
 HarFok:  IExCor= 1009 AccDes= 0.00D+00 IRadAn=         4 IDoV= 1
 ScaDFX=  1.000000  1.000000  1.000000  1.000000
 FoFCou: FMM=F IPFlag=           0 FMFlag=      100000 FMFlg1=           0
         NFxFlg=           0 DoJE=T BraDBF=F KetDBF=T FulRan=T
         Omega=  0.000000  0.000000  1.000000  0.000000  0.000000 ICntrl=     500 IOpCl=  0
         NMat0=    1 NMatS0=    1 NMatT0=    0 NMatD0=    1 NMtDS0=    0 NMtDT0=    0
         I1Cent=           4 NGrid=           0.
 Petite list used in FoFCou.
 Initial guess orbital symmetries:
       Occupied  (A) (A) (A) (A) (A) (A) (A) (A) (A) (A) (A) (A)
                 (A) (A) (A) (A) (A) (A) (A) (A) (A) (A) (A) (A)
                 (A) (A) (A) (A) (A)
       Virtual   (A) (A) (A) (A) (A) (A) (A) (A) (A) (A) (A) (A)
                 (A) (A) (A) (A) (A) (A) (A) (A) (A) (A) (A) (A)
                 (A) (A) (A) (A) (A) (A) (A) (A) (A) (A) (A) (A)
                 (A) (A) (A) (A) (A) (A) (A) (A) (A) (A) (A) (A)
                 (A) (A) (A) (A) (A) (A) (A) (A) (A) (A) (A) (A)
                 (A) (A) (A) (A) (A) (A) (A) (A) (A) (A) (A) (A)
                 (A) (A) (A) (A) (A) (A) (A) (A) (A) (A) (A) (A)
                 (A) (A) (A) (A) (A) (A) (A) (A) (A) (A) (A) (A)
                 (A) (A) (A) (A) (A) (A) (A) (A) (A) (A) (A) (A)
                 (A) (A) (A) (A) (A) (A) (A) (A) (A) (A) (A) (A)
                 (A) (A) (A) (A) (A) (A) (A) (A) (A) (A) (A) (A)
                 (A) (A) (A) (A) (A) (A) (A) (A) (A) (A) (A) (A)
                 (A) (A) (A) (A) (A) (A) (A) (A) (A) (A) (A) (A)
                 (A) (A) (A) (A) (A) (A) (A) (A) (A) (A) (A) (A)
                 (A) (A) (A) (A) (A) (A) (A) (A) (A) (A) (A) (A)
                 (A) (A) (A) (A) (A) (A) (A) (A) (A) (A) (A) (A)
                 (A) (A) (A) (A) (A) (A) (A) (A) (A) (A) (A) (A)
                 (A) (A) (A) (A) (A) (A) (A) (A) (A) (A) (A) (A)
                 (A) (A) (A) (A) (A) (A) (A)
 The electronic state of the initial guess is 1-A.
 Requested convergence on RMS density matrix=1.00D-08 within 128 cycles.
 Requested convergence on MAX density matrix=1.00D-06.
 Requested convergence on             energy=1.00D-06.
 No special actions if energy rises.
 Integral accuracy reduced to 1.0D-05 until final iterations.
 Initial convergence to 1.0D-05 achieved.  Increase integral accuracy.
 SCF Done:  E(RPBE1PBE) =  -560.061041870     A.U. after   12 cycles
             Convg  =    0.7474D-08             -V/T =  2.0033

 **********************************************************************

            Population analysis using the SCF density.

 **********************************************************************

 Orbital symmetries:
       Occupied  (A) (A) (A) (A) (A) (A) (A) (A) (A) (A) (A) (A)
                 (A) (A) (A) (A) (A) (A) (A) (A) (A) (A) (A) (A)
                 (A) (A) (A) (A) (A)
       Virtual   (A) (A) (A) (A) (A) (A) (A) (A) (A) (A) (A) (A)
                 (A) (A) (A) (A) (A) (A) (A) (A) (A) (A) (A) (A)
                 (A) (A) (A) (A) (A) (A) (A) (A) (A) (A) (A) (A)
                 (A) (A) (A) (A) (A) (A) (A) (A) (A) (A) (A) (A)
                 (A) (A) (A) (A) (A) (A) (A) (A) (A) (A) (A) (A)
                 (A) (A) (A) (A) (A) (A) (A) (A) (A) (A) (A) (A)
                 (A) (A) (A) (A) (A) (A) (A) (A) (A) (A) (A) (A)
                 (A) (A) (A) (A) (A) (A) (A) (A) (A) (A) (A) (A)
                 (A) (A) (A) (A) (A) (A) (A) (A) (A) (A) (A) (A)
                 (A) (A) (A) (A) (A) (A) (A) (A) (A) (A) (A) (A)
                 (A) (A) (A) (A) (A) (A) (A) (A) (A) (A) (A) (A)
                 (A) (A) (A) (A) (A) (A) (A) (A) (A) (A) (A) (A)
                 (A) (A) (A) (A) (A) (A) (A) (A) (A) (A) (A) (A)
                 (A) (A) (A) (A) (A) (A) (A) (A) (A) (A) (A) (A)
                 (A) (A) (A) (A) (A) (A) (A) (A) (A) (A) (A) (A)
                 (A) (A) (A) (A) (A) (A) (A) (A) (A) (A) (A) (A)
                 (A) (A) (A) (A) (A) (A) (A) (A) (A) (A) (A) (A)
                 (A) (A) (A) (A) (A) (A) (A) (A) (A) (A) (A) (A)
                 (A) (A) (A) (A) (A) (A) (A)
 The electronic state is 1-A.
 Alpha  occ. eigenvalues --  -66.25379 -19.20279 -19.20041 -10.26470 -10.21157
 Alpha  occ. eigenvalues --  -10.20872  -5.33043  -3.66573  -3.66452  -3.66316
 Alpha  occ. eigenvalues --   -1.04473  -1.02316  -0.77940  -0.70480  -0.63781
 Alpha  occ. eigenvalues --   -0.56774  -0.51207  -0.47004  -0.46746  -0.45527
 Alpha  occ. eigenvalues --   -0.42927  -0.40922  -0.38724  -0.38008  -0.35733
 Alpha  occ. eigenvalues --   -0.35565  -0.31870  -0.30669  -0.29484
 Alpha virt. eigenvalues --    0.03136   0.04606   0.05523   0.08346   0.09024
 Alpha virt. eigenvalues --    0.10512   0.11218   0.11549   0.12523   0.13231
 Alpha virt. eigenvalues --    0.14884   0.15010   0.15772   0.17521   0.18357
 Alpha virt. eigenvalues --    0.20775   0.21812   0.23447   0.24553   0.25028
 Alpha virt. eigenvalues --    0.26740   0.27725   0.28643   0.29751   0.31767
 Alpha virt. eigenvalues --    0.35398   0.37005   0.38686   0.39720   0.41608
 Alpha virt. eigenvalues --    0.42291   0.42721   0.43910   0.44806   0.45247
 Alpha virt. eigenvalues --    0.46282   0.47280   0.47714   0.49710   0.51170
 Alpha virt. eigenvalues --    0.52543   0.54404   0.55017   0.56086   0.57041
 Alpha virt. eigenvalues --    0.61175   0.63493   0.64934   0.66524   0.69616
 Alpha virt. eigenvalues --    0.71751   0.74718   0.77181   0.77798   0.78888
 Alpha virt. eigenvalues --    0.82398   0.83635   0.88054   0.89346   0.91331
 Alpha virt. eigenvalues --    0.93113   0.95037   0.97653   0.99865   1.02741
 Alpha virt. eigenvalues --    1.04126   1.06682   1.07880   1.08495   1.10099
 Alpha virt. eigenvalues --    1.13335   1.14730   1.15633   1.20207   1.21282
 Alpha virt. eigenvalues --    1.23209   1.28180   1.34845   1.35592   1.39286
 Alpha virt. eigenvalues --    1.42175   1.47323   1.48692   1.51113   1.51384
 Alpha virt. eigenvalues --    1.53236   1.55598   1.55925   1.56755   1.58809
 Alpha virt. eigenvalues --    1.59018   1.61811   1.62229   1.63752   1.67466
 Alpha virt. eigenvalues --    1.68219   1.71449   1.74330   1.77635   1.80436
 Alpha virt. eigenvalues --    1.81309   1.83611   1.85797   1.90210   1.93069
 Alpha virt. eigenvalues --    1.94354   1.95826   1.98189   2.02251   2.03420
 Alpha virt. eigenvalues --    2.03609   2.09590   2.10202   2.14211   2.16263
 Alpha virt. eigenvalues --    2.17148   2.19118   2.23178   2.25769   2.30838
 Alpha virt. eigenvalues --    2.32759   2.33679   2.34358   2.35144   2.35730
 Alpha virt. eigenvalues --    2.36554   2.41175   2.45739   2.47048   2.49324
 Alpha virt. eigenvalues --    2.51595   2.53141   2.54534   2.56036   2.58387
 Alpha virt. eigenvalues --    2.59675   2.60566   2.66382   2.68077   2.71078
 Alpha virt. eigenvalues --    2.72931   2.75919   2.81065   2.82156   2.83348
 Alpha virt. eigenvalues --    2.84162   2.91758   2.97972   3.00765   3.03469
 Alpha virt. eigenvalues --    3.05178   3.08970   3.09996   3.12268   3.16245
 Alpha virt. eigenvalues --    3.21780   3.22549   3.24293   3.26892   3.29462
 Alpha virt. eigenvalues --    3.32017   3.33669   3.37209   3.40277   3.43636
 Alpha virt. eigenvalues --    3.44689   3.45525   3.49415   3.53124   3.53832
 Alpha virt. eigenvalues --    3.58630   3.60180   3.62676   3.66322   3.77109
 Alpha virt. eigenvalues --    3.81792   3.88062   3.92919   3.96074   4.04227
 Alpha virt. eigenvalues --    4.19060   4.24519   4.25088   4.34625   4.36826
 Alpha virt. eigenvalues --    4.42685   4.46942   4.53651   4.56930   4.79535
 Alpha virt. eigenvalues --    5.15729   5.17017   5.18212   5.18548   5.28338
 Alpha virt. eigenvalues --    5.29234   5.38640   5.41796   5.45491   5.49852
 Alpha virt. eigenvalues --    5.79867   5.86731   6.03251   6.22606   6.39177
 Alpha virt. eigenvalues --    6.41922   6.53437   6.59032   6.61042   6.66216
 Alpha virt. eigenvalues --    6.68098   6.78653   6.82532   6.97736   7.06064
 Alpha virt. eigenvalues --    7.16038   7.22702  11.90294  22.37733  22.40602
 Alpha virt. eigenvalues --   22.44957  43.60950  43.92646
          Condensed to atoms (all electrons):
              1          2          3          4          5          6
     1  H    0.571689   0.396478  -0.027708  -0.027229  -0.026917  -0.006997
     2  C    0.396478   4.958687   0.261576   0.409714   0.407859  -0.024537
     3  C   -0.027708   0.261576   5.098149  -0.035645  -0.039893   0.370137
     4  H   -0.027229   0.409714  -0.035645   0.535778  -0.021210  -0.003661
     5  H   -0.026917   0.407859  -0.039893  -0.021210   0.559746   0.008060
     6  H   -0.006997  -0.024537   0.370137  -0.003661   0.008060   0.590923
     7  Si   0.005922  -0.012493   0.422523  -0.008629  -0.007195  -0.020187
     8  H   -0.007377  -0.030457   0.390662   0.007425  -0.003603  -0.026044
     9  O   -0.000106   0.004493  -0.042323  -0.000033  -0.000053   0.000074
    10  O    0.000281   0.000809  -0.037555   0.007922  -0.000979   0.000537
    11  H   -0.000313   0.000409  -0.040018   0.000676   0.002681   0.003137
    12  H   -0.000004   0.000201  -0.003626  -0.000014   0.000011   0.002187
    13  C   -0.000001  -0.000039   0.001383  -0.000074   0.000030   0.000018
    14  H   -0.000012   0.000201  -0.000264  -0.000238   0.000003   0.000027
    15  H    0.000000  -0.000384   0.000158   0.000109   0.000163   0.000022
    16  H    0.000006   0.000015   0.000476   0.000052  -0.000023  -0.000023
              7          8          9         10         11         12
     1  H    0.005922  -0.007377  -0.000106   0.000281  -0.000313  -0.000004
     2  C   -0.012493  -0.030457   0.004493   0.000809   0.000409   0.000201
     3  C    0.422523   0.390662  -0.042323  -0.037555  -0.040018  -0.003626
     4  H   -0.008629   0.007425  -0.000033   0.007922   0.000676  -0.000014
     5  H   -0.007195  -0.003603  -0.000053  -0.000979   0.002681   0.000011
     6  H   -0.020187  -0.026044   0.000074   0.000537   0.003137   0.002187
     7  Si  11.882123  -0.026841   0.477039   0.447325   0.387787  -0.027165
     8  H   -0.026841   0.571599   0.000069   0.001392   0.000988  -0.000093
     9  O    0.477039   0.000069   7.845548  -0.033662  -0.017402   0.299569
    10  O    0.447325   0.001392  -0.033662   7.843057  -0.027512  -0.001080
    11  H    0.387787   0.000988  -0.017402  -0.027512   0.740921   0.004104
    12  H   -0.027165  -0.000093   0.299569  -0.001080   0.004104   0.406225
    13  C   -0.050564  -0.000109  -0.007009   0.264241   0.002724   0.000825
    14  H    0.008283   0.000003   0.000064  -0.040843  -0.000264   0.000028
    15  H   -0.017101   0.000008  -0.000587  -0.043441   0.010294  -0.000066
    16  H   -0.006126  -0.000003   0.006803  -0.042777  -0.002037   0.000329
             13         14         15         16
     1  H   -0.000001  -0.000012   0.000000   0.000006
     2  C   -0.000039   0.000201  -0.000384   0.000015
     3  C    0.001383  -0.000264   0.000158   0.000476
     4  H   -0.000074  -0.000238   0.000109   0.000052
     5  H    0.000030   0.000003   0.000163  -0.000023
     6  H    0.000018   0.000027   0.000022  -0.000023
     7  Si  -0.050564   0.008283  -0.017101  -0.006126
     8  H   -0.000109   0.000003   0.000008  -0.000003
     9  O   -0.007009   0.000064  -0.000587   0.006803
    10  O    0.264241  -0.040843  -0.043441  -0.042777
    11  H    0.002724  -0.000264   0.010294  -0.002037
    12  H    0.000825   0.000028  -0.000066   0.000329
    13  C    4.765904   0.401467   0.419193   0.411978
    14  H    0.401467   0.567916  -0.030856  -0.033597
    15  H    0.419193  -0.030856   0.591937  -0.047560
    16  H    0.411978  -0.033597  -0.047560   0.593029
 Mulliken atomic charges:
              1
     1  H    0.122289
     2  C   -0.372532
     3  C   -0.318030
     4  H    0.135058
     5  H    0.121322
     6  H    0.106329
     7  Si   0.545300
     8  H    0.122383
     9  O   -0.532484
    10  O   -0.337713
    11  H   -0.066175
    12  H    0.318569
    13  C   -0.209967
    14  H    0.128083
    15  H    0.118111
    16  H    0.119458
 Sum of Mulliken atomic charges =   0.00000
 Mulliken charges with hydrogens summed into heavy atoms:
              1
     2  C    0.006137
     3  C   -0.089317
     7  Si   0.479125
     9  O   -0.213916
    10  O   -0.337713
    13  C    0.155685
 Sum of Mulliken charges with hydrogens summed into heavy atoms =   0.00000
 Electronic spatial extent (au):  <R**2>=            882.6017
 Charge=              0.0000 electrons
 Dipole moment (field-independent basis, Debye):
    X=             -0.0184    Y=             -0.1944    Z=             -1.1253  Tot=              1.1421
 Quadrupole moment (field-independent basis, Debye-Ang):
   XX=            -42.6117   YY=            -46.7758   ZZ=            -43.5829
   XY=             -2.7993   XZ=             -1.0842   YZ=             -3.7284
 Traceless Quadrupole moment (field-independent basis, Debye-Ang):
   XX=              1.7118   YY=             -2.4524   ZZ=              0.7405
   XY=             -2.7993   XZ=             -1.0842   YZ=             -3.7284
 Octapole moment (field-independent basis, Debye-Ang**2):
  XXX=             13.3557  YYY=             -0.7749  ZZZ=             -8.8123  XYY=              2.7602
  XXY=             -3.5488  XXZ=             -2.1486  XZZ=              3.5821  YZZ=              5.9095
  YYZ=             -8.7451  XYZ=             -3.2615
 Hexadecapole moment (field-independent basis, Debye-Ang**3):
 XXXX=           -699.6518 YYYY=           -371.9733 ZZZZ=           -109.9939 XXXY=            -11.0457
 XXXZ=             -4.0493 YYYX=            -10.8166 YYYZ=            -15.3943 ZZZX=             -4.4513
 ZZZY=            -12.5022 XXYY=           -178.9682 XXZZ=           -134.3182 YYZZ=            -67.5445
 XXYZ=             -1.5630 YYXZ=             -9.2986 ZZXY=              3.7626
 N-N= 3.285105127568D+02 E-N=-1.981053849400D+03  KE= 5.582425022514D+02
 1\1\GINC-TARSUS2\SP\RPBE1PBE\def2TZVP\C3H10O2Si1\RENATO\29-Jun-2018\0\
 \#SP PBE1PBE/Def2TZVP geom=connectivity\\Structure: 21\\0,1\H,0,0.,0.,
 0.\C,0,1.093,0.,0.\C,0,1.655,1.421,0.\H,0,1.41,-0.56,-0.885\H,0,1.424,
 -0.557,0.88\H,0,1.308,1.969,-0.883\Si,0,3.513,1.515,0.035\H,0,1.282,1.
 975,0.868\O,0,4.086,3.02,-0.318\O,0,4.037,0.394,-1.044\H,0,4.087,1.236
 ,1.376\H,0,3.792,3.425,-1.135\C,0,5.395,0.091,-1.261\H,0,5.455,-0.735,
 -1.973\H,0,5.891,-0.215,-0.332\H,0,5.936,0.948,-1.674\\Version=EM64L-G
 09RevC.01\State=1-A\HF=-560.0610419\RMSD=7.474e-09\Dipole=-0.1289111,0
 .0233668,-0.429825\Quadrupole=0.7969961,-0.7355045,-0.0614916,-2.48513
 28,-1.4873905,-2.5120205\PG=C01 [X(C3H10O2Si1)]\\@


 IF NO USE IS MADE OF THE LABOR OF PAST AGES,
 THE WORLD MUST REMAIN ALWAYS IN THE INFANCY OF KNOWLEDGE.

                          -- CICERO
 Job cpu time:  0 days  0 hours  7 minutes 41.3 seconds.
 File lengths (MBytes):  RWF=     40 Int=      0 D2E=      0 Chk=      3 Scr=      1
 Normal termination of Gaussian 09 at Fri Jun 29 11:16:57 2018.
