 Entering Gaussian System, Link 0=g09
 Initial command:
 /usr/local/gaussian09/g09/l1.exe /scratch/renato/Gau-27513.inp -scrdir=/scratch/renato/
 Entering Link 1 = /usr/local/gaussian09/g09/l1.exe PID=     27515.
  
 Copyright (c) 1988,1990,1992,1993,1995,1998,2003,2009,2011,
            Gaussian, Inc.  All Rights Reserved.
  
 This is part of the Gaussian(R) 09 program.  It is based on
 the Gaussian(R) 03 system (copyright 2003, Gaussian, Inc.),
 the Gaussian(R) 98 system (copyright 1998, Gaussian, Inc.),
 the Gaussian(R) 94 system (copyright 1995, Gaussian, Inc.),
 the Gaussian 92(TM) system (copyright 1992, Gaussian, Inc.),
 the Gaussian 90(TM) system (copyright 1990, Gaussian, Inc.),
 the Gaussian 88(TM) system (copyright 1988, Gaussian, Inc.),
 the Gaussian 86(TM) system (copyright 1986, Carnegie Mellon
 University), and the Gaussian 82(TM) system (copyright 1983,
 Carnegie Mellon University). Gaussian is a federally registered
 trademark of Gaussian, Inc.
  
 This software contains proprietary and confidential information,
 including trade secrets, belonging to Gaussian, Inc.
  
 This software is provided under written license and may be
 used, copied, transmitted, or stored only in accord with that
 written license.
  
 The following legend is applicable only to US Government
 contracts under FAR:
  
                    RESTRICTED RIGHTS LEGEND
  
 Use, reproduction and disclosure by the US Government is
 subject to restrictions as set forth in subparagraphs (a)
 and (c) of the Commercial Computer Software - Restricted
 Rights clause in FAR 52.227-19.
  
 Gaussian, Inc.
 340 Quinnipiac St., Bldg. 40, Wallingford CT 06492
  
  
 ---------------------------------------------------------------
 Warning -- This program may not be used in any manner that
 competes with the business of Gaussian, Inc. or will provide
 assistance to any competitor of Gaussian, Inc.  The licensee
 of this program is prohibited from giving any competitor of
 Gaussian, Inc. access to this program.  By using this program,
 the user acknowledges that Gaussian, Inc. is engaged in the
 business of creating and licensing software in the field of
 computational chemistry and represents and warrants to the
 licensee that it is not a competitor of Gaussian, Inc. and that
 it will not use this program in any manner prohibited above.
 ---------------------------------------------------------------
  

 Cite this work as:
 Gaussian 09, Revision C.01,
 M. J. Frisch, G. W. Trucks, H. B. Schlegel, G. E. Scuseria, 
 M. A. Robb, J. R. Cheeseman, G. Scalmani, V. Barone, B. Mennucci, 
 G. A. Petersson, H. Nakatsuji, M. Caricato, X. Li, H. P. Hratchian, 
 A. F. Izmaylov, J. Bloino, G. Zheng, J. L. Sonnenberg, M. Hada, 
 M. Ehara, K. Toyota, R. Fukuda, J. Hasegawa, M. Ishida, T. Nakajima, 
 Y. Honda, O. Kitao, H. Nakai, T. Vreven, J. A. Montgomery, Jr., 
 J. E. Peralta, F. Ogliaro, M. Bearpark, J. J. Heyd, E. Brothers, 
 K. N. Kudin, V. N. Staroverov, T. Keith, R. Kobayashi, J. Normand, 
 K. Raghavachari, A. Rendell, J. C. Burant, S. S. Iyengar, J. Tomasi, 
 M. Cossi, N. Rega, J. M. Millam, M. Klene, J. E. Knox, J. B. Cross, 
 V. Bakken, C. Adamo, J. Jaramillo, R. Gomperts, R. E. Stratmann, 
 O. Yazyev, A. J. Austin, R. Cammi, C. Pomelli, J. W. Ochterski, 
 R. L. Martin, K. Morokuma, V. G. Zakrzewski, G. A. Voth, 
 P. Salvador, J. J. Dannenberg, S. Dapprich, A. D. Daniels, 
 O. Farkas, J. B. Foresman, J. V. Ortiz, J. Cioslowski, 
 and D. J. Fox, Gaussian, Inc., Wallingford CT, 2010.
 
 ******************************************
 Gaussian 09:  EM64L-G09RevC.01 23-Sep-2011
                29-Jun-2018 
 ******************************************
 %nproc=2
 Will use up to    2 processors via shared memory.
 %mem=256MB
 %RWF=d23.rwf
 %chk=d2331
 %NoSave
 --------------------------------------
 #SP PBE1PBE/Def2TZVP geom=connectivity
 --------------------------------------
 1/38=1,57=2/1;
 2/12=2,17=6,18=5,40=1/2;
 3/5=44,7=101,11=2,16=1,25=1,30=1,74=-13/1,2,3;
 4//1;
 5/5=2,38=5/2;
 6/7=2,8=2,9=2,10=2,28=1/1;
 99/5=1,9=1/99;
 -------------
 Structure: 31
 -------------
 Charge =  0 Multiplicity = 1
 Symbolic Z-Matrix:
 H                     0.        0.        0. 
 C                     1.093     0.        0. 
 C                     1.655     1.421     0. 
 H                     1.41     -0.56     -0.885 
 H                     1.424    -0.557     0.88 
 H                     1.308     1.969    -0.883 
 Si                    3.513     1.515     0.035 
 H                     1.282     1.975     0.868 
 O                     4.074     3.056     0.208 
 O                     4.021     0.835    -1.371 
 H                     4.113     0.8       1.191 
 H                     3.764     3.713    -0.417 
 C                     5.376     0.637    -1.7 
 H                     5.425     0.104    -2.652 
 H                     5.89      0.038    -0.94 
 H                     5.906     1.589    -1.804 
 
                          Input orientation:                          
 ---------------------------------------------------------------------
 Center     Atomic      Atomic             Coordinates (Angstroms)
 Number     Number       Type             X           Y           Z
 ---------------------------------------------------------------------
      1          1           0        0.000000    0.000000    0.000000
      2          6           0        1.093000    0.000000    0.000000
      3          6           0        1.655000    1.421000    0.000000
      4          1           0        1.410000   -0.560000   -0.885000
      5          1           0        1.424000   -0.557000    0.880000
      6          1           0        1.308000    1.969000   -0.883000
      7         14           0        3.513000    1.515000    0.035000
      8          1           0        1.282000    1.975000    0.868000
      9          8           0        4.074000    3.056000    0.208000
     10          8           0        4.021000    0.835000   -1.371000
     11          1           0        4.113000    0.800000    1.191000
     12          1           0        3.764000    3.713000   -0.417000
     13          6           0        5.376000    0.637000   -1.700000
     14          1           0        5.425000    0.104000   -2.652000
     15          1           0        5.890000    0.038000   -0.940000
     16          1           0        5.906000    1.589000   -1.804000
 ---------------------------------------------------------------------
                    Distance matrix (angstroms):
                    1          2          3          4          5
     1  H    0.000000
     2  C    1.093000   0.000000
     3  C    2.181345   1.528098   0.000000
     4  H    1.756395   1.094218   2.183486   0.000000
     5  H    1.764207   1.092799   2.177210   1.765058   0.000000
     6  H    2.523393   2.168611   1.095629   2.531057   3.082580
     7  Si   3.825914   2.855320   1.860706   3.094291   3.061230
     8  H    2.509497   2.165588   1.095203   3.084740   2.536007
     9  O    5.097046   4.274197   2.927123   4.622445   4.530767
    10  O    4.329585   3.339169   2.796604   2.999924   3.707974
    11  H    4.356059   3.343483   2.801051   3.669548   3.028018
    12  H    5.303579   4.592875   3.142457   4.900905   5.038919
    13  C    5.674253   4.651866   4.165393   4.222107   4.868299
    14  H    6.039416   5.080368   4.793797   4.436599   5.377727
    15  H    5.964658   4.888379   4.553187   4.520070   4.859175
    16  H    6.376533   5.379991   4.621000   5.067226   5.647787
                    6          7          8          9         10
     6  H    0.000000
     7  Si   2.431227   0.000000
     8  H    1.751203   2.425459   0.000000
     9  O    3.165850   1.649039   3.065848   0.000000
    10  O    2.980683   1.642346   3.716832   2.725599   0.000000
    11  H    3.679139   1.485786   3.082128   2.461168   2.563890
    12  H    3.048053   2.257988   3.291230   0.958318   3.042869
    13  C    4.357790   2.692931   5.014549   3.344732   1.408357
    14  H    4.853584   3.587009   5.749390   4.326558   2.036305
    15  H    4.972598   2.963492   5.315496   3.704603   2.077049
    16  H    4.704705   3.018915   5.354433   3.091352   2.075868
                   11         12         13         14         15
    11  H    0.000000
    12  H    3.345599   0.000000
    13  C    3.159053   3.702217   0.000000
    14  H    4.120001   4.558402   1.092151   0.000000
    15  H    2.877418   4.277737   1.095718   1.775254   0.000000
    16  H    3.578742   3.320137   1.094541   1.776426   1.775487
                   16
    16  H    0.000000
 Stoichiometry    C3H10O2Si
 Framework group  C1[X(C3H10O2Si)]
 Deg. of freedom    42
 Full point group                 C1      NOp   1
 Largest Abelian subgroup         C1      NOp   1
 Largest concise Abelian subgroup C1      NOp   1
                         Standard orientation:                         
 ---------------------------------------------------------------------
 Center     Atomic      Atomic             Coordinates (Angstroms)
 Number     Number       Type             X           Y           Z
 ---------------------------------------------------------------------
      1          1           0       -3.448518   -0.947740   -0.299546
      2          6           0       -2.430127   -0.936991    0.097208
      3          6           0       -1.668043    0.311686   -0.344514
      4          1           0       -1.943736   -1.852399   -0.253175
      5          1           0       -2.498575   -0.994832    1.186326
      6          1           0       -1.615046    0.360042   -1.437791
      7         14           0        0.067631    0.429143    0.315688
      8          1           0       -2.202143    1.213060   -0.025562
      9          8           0        0.793208    1.866577   -0.040196
     10          8           0        0.879626   -0.841692   -0.334653
     11          1           0        0.134427    0.369392    1.798768
     12          1           0        0.815885    2.135607   -0.959698
     13          6           0        2.214856   -1.160923   -0.020453
     14          1           0        2.477648   -2.087794   -0.534890
     15          1           0        2.348512   -1.311824    1.056562
     16          1           0        2.901917   -0.373230   -0.345271
 ---------------------------------------------------------------------
 Rotational constants (GHZ):      3.7866910      2.0085863      1.4270640
 Standard basis: def2TZVP (5D, 7F)
 There are   252 symmetry adapted basis functions of A   symmetry.
 Integral buffers will be    131072 words long.
 Raffenetti 2 integral format.
 Two-electron integral symmetry is turned on.
   252 basis functions,   404 primitive gaussians,   282 cartesian basis functions
    29 alpha electrons       29 beta electrons
       nuclear repulsion energy       327.5635781382 Hartrees.
 NAtoms=   16 NActive=   16 NUniq=   16 SFac= 1.00D+00 NAtFMM=   60 NAOKFM=F Big=F
 One-electron integrals computed using PRISM.
   1 Symmetry operations used in ECPInt.
 ECPInt:  NShTT=    5886 NPrTT=   17754 LenC2=    5764 LenP2D=   13835.
 LDataN:  DoStor=T MaxTD1= 6 Len=  172
 NBasis=   252 RedAO= T  NBF=   252
 NBsUse=   252 1.00D-06 NBFU=   252
 Harris functional with IExCor= 1009 diagonalized for initial guess.
 ExpMin= 7.01D-02 ExpMax= 4.48D+04 ExpMxC= 1.53D+03 IAcc=2 IRadAn=         4 AccDes= 0.00D+00
 HarFok:  IExCor= 1009 AccDes= 0.00D+00 IRadAn=         4 IDoV= 1
 ScaDFX=  1.000000  1.000000  1.000000  1.000000
 FoFCou: FMM=F IPFlag=           0 FMFlag=      100000 FMFlg1=           0
         NFxFlg=           0 DoJE=T BraDBF=F KetDBF=T FulRan=T
         Omega=  0.000000  0.000000  1.000000  0.000000  0.000000 ICntrl=     500 IOpCl=  0
         NMat0=    1 NMatS0=    1 NMatT0=    0 NMatD0=    1 NMtDS0=    0 NMtDT0=    0
         I1Cent=           4 NGrid=           0.
 Petite list used in FoFCou.
 Initial guess orbital symmetries:
       Occupied  (A) (A) (A) (A) (A) (A) (A) (A) (A) (A) (A) (A)
                 (A) (A) (A) (A) (A) (A) (A) (A) (A) (A) (A) (A)
                 (A) (A) (A) (A) (A)
       Virtual   (A) (A) (A) (A) (A) (A) (A) (A) (A) (A) (A) (A)
                 (A) (A) (A) (A) (A) (A) (A) (A) (A) (A) (A) (A)
                 (A) (A) (A) (A) (A) (A) (A) (A) (A) (A) (A) (A)
                 (A) (A) (A) (A) (A) (A) (A) (A) (A) (A) (A) (A)
                 (A) (A) (A) (A) (A) (A) (A) (A) (A) (A) (A) (A)
                 (A) (A) (A) (A) (A) (A) (A) (A) (A) (A) (A) (A)
                 (A) (A) (A) (A) (A) (A) (A) (A) (A) (A) (A) (A)
                 (A) (A) (A) (A) (A) (A) (A) (A) (A) (A) (A) (A)
                 (A) (A) (A) (A) (A) (A) (A) (A) (A) (A) (A) (A)
                 (A) (A) (A) (A) (A) (A) (A) (A) (A) (A) (A) (A)
                 (A) (A) (A) (A) (A) (A) (A) (A) (A) (A) (A) (A)
                 (A) (A) (A) (A) (A) (A) (A) (A) (A) (A) (A) (A)
                 (A) (A) (A) (A) (A) (A) (A) (A) (A) (A) (A) (A)
                 (A) (A) (A) (A) (A) (A) (A) (A) (A) (A) (A) (A)
                 (A) (A) (A) (A) (A) (A) (A) (A) (A) (A) (A) (A)
                 (A) (A) (A) (A) (A) (A) (A) (A) (A) (A) (A) (A)
                 (A) (A) (A) (A) (A) (A) (A) (A) (A) (A) (A) (A)
                 (A) (A) (A) (A) (A) (A) (A) (A) (A) (A) (A) (A)
                 (A) (A) (A) (A) (A) (A) (A)
 The electronic state of the initial guess is 1-A.
 Requested convergence on RMS density matrix=1.00D-08 within 128 cycles.
 Requested convergence on MAX density matrix=1.00D-06.
 Requested convergence on             energy=1.00D-06.
 No special actions if energy rises.
 Integral accuracy reduced to 1.0D-05 until final iterations.
 Initial convergence to 1.0D-05 achieved.  Increase integral accuracy.
 SCF Done:  E(RPBE1PBE) =  -560.061479438     A.U. after   12 cycles
             Convg  =    0.7451D-08             -V/T =  2.0033

 **********************************************************************

            Population analysis using the SCF density.

 **********************************************************************

 Orbital symmetries:
       Occupied  (A) (A) (A) (A) (A) (A) (A) (A) (A) (A) (A) (A)
                 (A) (A) (A) (A) (A) (A) (A) (A) (A) (A) (A) (A)
                 (A) (A) (A) (A) (A)
       Virtual   (A) (A) (A) (A) (A) (A) (A) (A) (A) (A) (A) (A)
                 (A) (A) (A) (A) (A) (A) (A) (A) (A) (A) (A) (A)
                 (A) (A) (A) (A) (A) (A) (A) (A) (A) (A) (A) (A)
                 (A) (A) (A) (A) (A) (A) (A) (A) (A) (A) (A) (A)
                 (A) (A) (A) (A) (A) (A) (A) (A) (A) (A) (A) (A)
                 (A) (A) (A) (A) (A) (A) (A) (A) (A) (A) (A) (A)
                 (A) (A) (A) (A) (A) (A) (A) (A) (A) (A) (A) (A)
                 (A) (A) (A) (A) (A) (A) (A) (A) (A) (A) (A) (A)
                 (A) (A) (A) (A) (A) (A) (A) (A) (A) (A) (A) (A)
                 (A) (A) (A) (A) (A) (A) (A) (A) (A) (A) (A) (A)
                 (A) (A) (A) (A) (A) (A) (A) (A) (A) (A) (A) (A)
                 (A) (A) (A) (A) (A) (A) (A) (A) (A) (A) (A) (A)
                 (A) (A) (A) (A) (A) (A) (A) (A) (A) (A) (A) (A)
                 (A) (A) (A) (A) (A) (A) (A) (A) (A) (A) (A) (A)
                 (A) (A) (A) (A) (A) (A) (A) (A) (A) (A) (A) (A)
                 (A) (A) (A) (A) (A) (A) (A) (A) (A) (A) (A) (A)
                 (A) (A) (A) (A) (A) (A) (A) (A) (A) (A) (A) (A)
                 (A) (A) (A) (A) (A) (A) (A) (A) (A) (A) (A) (A)
                 (A) (A) (A) (A) (A) (A) (A)
 The electronic state is 1-A.
 Alpha  occ. eigenvalues --  -66.25386 -19.20269 -19.20036 -10.26448 -10.21299
 Alpha  occ. eigenvalues --  -10.20856  -5.33046  -3.66574  -3.66455  -3.66321
 Alpha  occ. eigenvalues --   -1.04445  -1.02293  -0.77992  -0.70504  -0.63790
 Alpha  occ. eigenvalues --   -0.56792  -0.51176  -0.46937  -0.46653  -0.45576
 Alpha  occ. eigenvalues --   -0.43327  -0.40852  -0.38572  -0.37969  -0.36051
 Alpha  occ. eigenvalues --   -0.35415  -0.31929  -0.30591  -0.29536
 Alpha virt. eigenvalues --    0.03080   0.04767   0.05539   0.08080   0.09579
 Alpha virt. eigenvalues --    0.10317   0.11060   0.11669   0.12601   0.13251
 Alpha virt. eigenvalues --    0.14542   0.14977   0.15892   0.17093   0.17851
 Alpha virt. eigenvalues --    0.20920   0.22047   0.23573   0.24617   0.25214
 Alpha virt. eigenvalues --    0.26971   0.27784   0.28824   0.29771   0.31436
 Alpha virt. eigenvalues --    0.35015   0.37061   0.38230   0.39620   0.41595
 Alpha virt. eigenvalues --    0.42210   0.43146   0.44115   0.44752   0.45451
 Alpha virt. eigenvalues --    0.46507   0.47357   0.47742   0.49402   0.50365
 Alpha virt. eigenvalues --    0.52791   0.53893   0.55261   0.56619   0.57378
 Alpha virt. eigenvalues --    0.60413   0.62820   0.66286   0.67001   0.67533
 Alpha virt. eigenvalues --    0.73967   0.74869   0.75254   0.77220   0.81191
 Alpha virt. eigenvalues --    0.83297   0.83928   0.87442   0.88816   0.91889
 Alpha virt. eigenvalues --    0.93003   0.95796   0.97531   0.99506   1.01720
 Alpha virt. eigenvalues --    1.04613   1.06252   1.07260   1.08240   1.11391
 Alpha virt. eigenvalues --    1.13421   1.15104   1.15685   1.20881   1.21540
 Alpha virt. eigenvalues --    1.24250   1.28287   1.33543   1.35191   1.38881
 Alpha virt. eigenvalues --    1.42366   1.47545   1.48326   1.50274   1.51820
 Alpha virt. eigenvalues --    1.53904   1.54658   1.55822   1.57031   1.58021
 Alpha virt. eigenvalues --    1.59171   1.61802   1.62826   1.63184   1.67501
 Alpha virt. eigenvalues --    1.69382   1.71663   1.74247   1.77751   1.80317
 Alpha virt. eigenvalues --    1.81949   1.83241   1.86339   1.89756   1.92059
 Alpha virt. eigenvalues --    1.93510   1.96489   1.99570   2.01188   2.03222
 Alpha virt. eigenvalues --    2.04194   2.09947   2.10569   2.13527   2.14931
 Alpha virt. eigenvalues --    2.17051   2.20718   2.23885   2.25836   2.31245
 Alpha virt. eigenvalues --    2.33021   2.34038   2.34671   2.35403   2.35896
 Alpha virt. eigenvalues --    2.36632   2.41003   2.44255   2.47503   2.48460
 Alpha virt. eigenvalues --    2.51022   2.52985   2.54993   2.56397   2.58352
 Alpha virt. eigenvalues --    2.59725   2.61685   2.65800   2.67475   2.71784
 Alpha virt. eigenvalues --    2.73630   2.76294   2.80396   2.81897   2.82029
 Alpha virt. eigenvalues --    2.84039   2.92470   2.96059   3.00657   3.03394
 Alpha virt. eigenvalues --    3.04709   3.09381   3.11198   3.12774   3.15374
 Alpha virt. eigenvalues --    3.21454   3.22029   3.23536   3.27115   3.31084
 Alpha virt. eigenvalues --    3.31964   3.32636   3.35645   3.39632   3.44142
 Alpha virt. eigenvalues --    3.44924   3.45881   3.49732   3.53611   3.54594
 Alpha virt. eigenvalues --    3.58807   3.59275   3.63025   3.66680   3.76805
 Alpha virt. eigenvalues --    3.81491   3.87808   3.92166   3.96100   4.04094
 Alpha virt. eigenvalues --    4.19249   4.24476   4.25067   4.34605   4.36867
 Alpha virt. eigenvalues --    4.42267   4.47031   4.53727   4.57224   4.79575
 Alpha virt. eigenvalues --    5.15705   5.17021   5.18382   5.18435   5.28299
 Alpha virt. eigenvalues --    5.29447   5.38717   5.41768   5.45606   5.49849
 Alpha virt. eigenvalues --    5.79934   5.86541   6.03633   6.22571   6.38341
 Alpha virt. eigenvalues --    6.41964   6.53247   6.58820   6.60418   6.66209
 Alpha virt. eigenvalues --    6.68292   6.78744   6.82541   6.97642   7.06221
 Alpha virt. eigenvalues --    7.15635   7.22905  11.90550  22.37647  22.40938
 Alpha virt. eigenvalues --   22.45728  43.61702  43.93898
          Condensed to atoms (all electrons):
              1          2          3          4          5          6
     1  H    0.566107   0.397116  -0.027306  -0.025761  -0.026064  -0.006751
     2  C    0.397116   4.967263   0.260785   0.410120   0.410374  -0.023468
     3  C   -0.027306   0.260785   5.096064  -0.037355  -0.040390   0.373347
     4  H   -0.025761   0.410120  -0.037355   0.538733  -0.023589  -0.004016
     5  H   -0.026064   0.410374  -0.040390  -0.023589   0.555692   0.007857
     6  H   -0.006751  -0.023468   0.373347  -0.004016   0.007857   0.582903
     7  Si   0.005940  -0.013256   0.421214  -0.007352  -0.007194  -0.019835
     8  H   -0.007293  -0.029889   0.388168   0.007765  -0.003809  -0.026881
     9  O   -0.000119   0.004176  -0.041301   0.000013  -0.000012  -0.000179
    10  O   -0.000033  -0.000905  -0.036148   0.006770  -0.000323   0.001154
    11  H   -0.000284   0.000249  -0.039970   0.000575   0.003300   0.003147
    12  H   -0.000001   0.000125  -0.002873  -0.000008   0.000011   0.001354
    13  C    0.000002   0.000201   0.001162  -0.000169   0.000047   0.000233
    14  H   -0.000005   0.000181  -0.000346  -0.000164  -0.000001   0.000027
    15  H    0.000001  -0.000168   0.000004   0.000025   0.000086   0.000053
    16  H    0.000003  -0.000091   0.000740   0.000069  -0.000009  -0.000060
              7          8          9         10         11         12
     1  H    0.005940  -0.007293  -0.000119  -0.000033  -0.000284  -0.000001
     2  C   -0.013256  -0.029889   0.004176  -0.000905   0.000249   0.000125
     3  C    0.421214   0.388168  -0.041301  -0.036148  -0.039970  -0.002873
     4  H   -0.007352   0.007765   0.000013   0.006770   0.000575  -0.000008
     5  H   -0.007194  -0.003809  -0.000012  -0.000323   0.003300   0.000011
     6  H   -0.019835  -0.026881  -0.000179   0.001154   0.003147   0.001354
     7  Si  11.881288  -0.029052   0.475184   0.454283   0.384530  -0.027912
     8  H   -0.029052   0.576008  -0.000340   0.001609   0.001597   0.000013
     9  O    0.475184  -0.000340   7.846251  -0.032665  -0.016338   0.299138
    10  O    0.454283   0.001609  -0.032665   7.837803  -0.027020  -0.000994
    11  H    0.384530   0.001597  -0.016338  -0.027020   0.741697   0.004117
    12  H   -0.027912   0.000013   0.299138  -0.000994   0.004117   0.406818
    13  C   -0.050509  -0.000117  -0.006934   0.262108   0.003174   0.000903
    14  H    0.007796   0.000000   0.000078  -0.040624  -0.000283   0.000032
    15  H   -0.017380   0.000005  -0.000569  -0.043127   0.010434  -0.000072
    16  H   -0.005619   0.000006   0.006598  -0.043399  -0.002044   0.000308
             13         14         15         16
     1  H    0.000002  -0.000005   0.000001   0.000003
     2  C    0.000201   0.000181  -0.000168  -0.000091
     3  C    0.001162  -0.000346   0.000004   0.000740
     4  H   -0.000169  -0.000164   0.000025   0.000069
     5  H    0.000047  -0.000001   0.000086  -0.000009
     6  H    0.000233   0.000027   0.000053  -0.000060
     7  Si  -0.050509   0.007796  -0.017380  -0.005619
     8  H   -0.000117   0.000000   0.000005   0.000006
     9  O   -0.006934   0.000078  -0.000569   0.006598
    10  O    0.262108  -0.040624  -0.043127  -0.043399
    11  H    0.003174  -0.000283   0.010434  -0.002044
    12  H    0.000903   0.000032  -0.000072   0.000308
    13  C    4.769400   0.402006   0.418913   0.411949
    14  H    0.402006   0.567080  -0.030819  -0.033398
    15  H    0.418913  -0.030819   0.592137  -0.047697
    16  H    0.411949  -0.033398  -0.047697   0.592987
 Mulliken atomic charges:
              1
     1  H    0.124449
     2  C   -0.382813
     3  C   -0.315795
     4  H    0.134344
     5  H    0.124023
     6  H    0.111114
     7  Si   0.547873
     8  H    0.122210
     9  O   -0.532981
    10  O   -0.338488
    11  H   -0.066879
    12  H    0.319041
    13  C   -0.212369
    14  H    0.128440
    15  H    0.118173
    16  H    0.119658
 Sum of Mulliken atomic charges =   0.00000
 Mulliken charges with hydrogens summed into heavy atoms:
              1
     2  C    0.000003
     3  C   -0.082471
     7  Si   0.480994
     9  O   -0.213940
    10  O   -0.338488
    13  C    0.153902
 Sum of Mulliken charges with hydrogens summed into heavy atoms =   0.00000
 Electronic spatial extent (au):  <R**2>=            895.9339
 Charge=              0.0000 electrons
 Dipole moment (field-independent basis, Debye):
    X=              0.0457    Y=             -0.1093    Z=             -1.1325  Tot=              1.1387
 Quadrupole moment (field-independent basis, Debye-Ang):
   XX=            -42.2049   YY=            -46.3034   ZZ=            -44.2203
   XY=             -2.2876   XZ=             -0.9412   YZ=             -4.0106
 Traceless Quadrupole moment (field-independent basis, Debye-Ang):
   XX=              2.0379   YY=             -2.0605   ZZ=              0.0226
   XY=             -2.2876   XZ=             -0.9412   YZ=             -4.0106
 Octapole moment (field-independent basis, Debye-Ang**2):
  XXX=             14.4125  YYY=              1.1754  ZZZ=             -7.5818  XYY=              3.5313
  XXY=             -2.9170  XXZ=             -2.4684  XZZ=              3.5797  YZZ=              5.3124
  YYZ=             -9.5078  XYZ=             -3.8706
 Hexadecapole moment (field-independent basis, Debye-Ang**3):
 XXXX=           -728.7874 YYYY=           -348.7336 ZZZZ=           -112.8860 XXXY=            -11.0886
 XXXZ=             -2.8915 YYYX=             -7.9710 YYYZ=            -16.8071 ZZZX=             -3.2829
 ZZZY=             -8.5973 XXYY=           -179.1017 XXZZ=           -140.8637 YYZZ=            -68.0647
 XXYZ=             -1.2013 YYXZ=             -9.7167 ZZXY=              3.5071
 N-N= 3.275635781382D+02 E-N=-1.979150345775D+03  KE= 5.582386663905D+02
 1\1\GINC-TARSUS2\SP\RPBE1PBE\def2TZVP\C3H10O2Si1\RENATO\29-Jun-2018\0\
 \#SP PBE1PBE/Def2TZVP geom=connectivity\\Structure: 31\\0,1\H,0,0.,0.,
 0.\C,0,1.093,0.,0.\C,0,1.655,1.421,0.\H,0,1.41,-0.56,-0.885\H,0,1.424,
 -0.557,0.88\H,0,1.308,1.969,-0.883\Si,0,3.513,1.515,0.035\H,0,1.282,1.
 975,0.868\O,0,4.074,3.056,0.208\O,0,4.021,0.835,-1.371\H,0,4.113,0.8,1
 .191\H,0,3.764,3.713,-0.417\C,0,5.376,0.637,-1.7\H,0,5.425,0.104,-2.65
 2\H,0,5.89,0.038,-0.94\H,0,5.906,1.589,-1.804\\Version=EM64L-G09RevC.0
 1\State=1-A\HF=-560.0614794\RMSD=7.451e-09\Dipole=-0.1454108,0.1678643
 ,-0.3890584\Quadrupole=0.7916304,0.851783,-1.6434134,-1.848097,-2.2156
 604,-2.0599223\PG=C01 [X(C3H10O2Si1)]\\@


 YOU WILL NEVER "FIND" TIME FOR ANYTHING.
 IF YOU WANT TIME, YOU MUST MAKE IT.

                        -- CHARLES BIXTON
 Job cpu time:  0 days  0 hours  7 minutes 44.8 seconds.
 File lengths (MBytes):  RWF=     40 Int=      0 D2E=      0 Chk=      3 Scr=      1
 Normal termination of Gaussian 09 at Fri Jun 29 12:01:35 2018.
