 Entering Gaussian System, Link 0=g09
 Initial command:
 /usr/local/gaussian09/g09/l1.exe /scratch/renato/Gau-28034.inp -scrdir=/scratch/renato/
 Entering Link 1 = /usr/local/gaussian09/g09/l1.exe PID=     28036.
  
 Copyright (c) 1988,1990,1992,1993,1995,1998,2003,2009,2011,
            Gaussian, Inc.  All Rights Reserved.
  
 This is part of the Gaussian(R) 09 program.  It is based on
 the Gaussian(R) 03 system (copyright 2003, Gaussian, Inc.),
 the Gaussian(R) 98 system (copyright 1998, Gaussian, Inc.),
 the Gaussian(R) 94 system (copyright 1995, Gaussian, Inc.),
 the Gaussian 92(TM) system (copyright 1992, Gaussian, Inc.),
 the Gaussian 90(TM) system (copyright 1990, Gaussian, Inc.),
 the Gaussian 88(TM) system (copyright 1988, Gaussian, Inc.),
 the Gaussian 86(TM) system (copyright 1986, Carnegie Mellon
 University), and the Gaussian 82(TM) system (copyright 1983,
 Carnegie Mellon University). Gaussian is a federally registered
 trademark of Gaussian, Inc.
  
 This software contains proprietary and confidential information,
 including trade secrets, belonging to Gaussian, Inc.
  
 This software is provided under written license and may be
 used, copied, transmitted, or stored only in accord with that
 written license.
  
 The following legend is applicable only to US Government
 contracts under FAR:
  
                    RESTRICTED RIGHTS LEGEND
  
 Use, reproduction and disclosure by the US Government is
 subject to restrictions as set forth in subparagraphs (a)
 and (c) of the Commercial Computer Software - Restricted
 Rights clause in FAR 52.227-19.
  
 Gaussian, Inc.
 340 Quinnipiac St., Bldg. 40, Wallingford CT 06492
  
  
 ---------------------------------------------------------------
 Warning -- This program may not be used in any manner that
 competes with the business of Gaussian, Inc. or will provide
 assistance to any competitor of Gaussian, Inc.  The licensee
 of this program is prohibited from giving any competitor of
 Gaussian, Inc. access to this program.  By using this program,
 the user acknowledges that Gaussian, Inc. is engaged in the
 business of creating and licensing software in the field of
 computational chemistry and represents and warrants to the
 licensee that it is not a competitor of Gaussian, Inc. and that
 it will not use this program in any manner prohibited above.
 ---------------------------------------------------------------
  

 Cite this work as:
 Gaussian 09, Revision C.01,
 M. J. Frisch, G. W. Trucks, H. B. Schlegel, G. E. Scuseria, 
 M. A. Robb, J. R. Cheeseman, G. Scalmani, V. Barone, B. Mennucci, 
 G. A. Petersson, H. Nakatsuji, M. Caricato, X. Li, H. P. Hratchian, 
 A. F. Izmaylov, J. Bloino, G. Zheng, J. L. Sonnenberg, M. Hada, 
 M. Ehara, K. Toyota, R. Fukuda, J. Hasegawa, M. Ishida, T. Nakajima, 
 Y. Honda, O. Kitao, H. Nakai, T. Vreven, J. A. Montgomery, Jr., 
 J. E. Peralta, F. Ogliaro, M. Bearpark, J. J. Heyd, E. Brothers, 
 K. N. Kudin, V. N. Staroverov, T. Keith, R. Kobayashi, J. Normand, 
 K. Raghavachari, A. Rendell, J. C. Burant, S. S. Iyengar, J. Tomasi, 
 M. Cossi, N. Rega, J. M. Millam, M. Klene, J. E. Knox, J. B. Cross, 
 V. Bakken, C. Adamo, J. Jaramillo, R. Gomperts, R. E. Stratmann, 
 O. Yazyev, A. J. Austin, R. Cammi, C. Pomelli, J. W. Ochterski, 
 R. L. Martin, K. Morokuma, V. G. Zakrzewski, G. A. Voth, 
 P. Salvador, J. J. Dannenberg, S. Dapprich, A. D. Daniels, 
 O. Farkas, J. B. Foresman, J. V. Ortiz, J. Cioslowski, 
 and D. J. Fox, Gaussian, Inc., Wallingford CT, 2010.
 
 ******************************************
 Gaussian 09:  EM64L-G09RevC.01 23-Sep-2011
                29-Jun-2018 
 ******************************************
 %nproc=2
 Will use up to    2 processors via shared memory.
 %mem=256MB
 %RWF=d23.rwf
 %chk=d233
 %NoSave
 --------------------------------------
 #SP PBE1PBE/Def2TZVP geom=connectivity
 --------------------------------------
 1/38=1,57=2/1;
 2/12=2,17=6,18=5,40=1/2;
 3/5=44,7=101,11=2,16=1,25=1,30=1,74=-13/1,2,3;
 4//1;
 5/5=2,38=5/2;
 6/7=2,8=2,9=2,10=2,28=1/1;
 99/5=1,9=1/99;
 ------------
 Structure: 3
 ------------
 Charge =  0 Multiplicity = 1
 Symbolic Z-Matrix:
 H                     0.        0.        0. 
 C                     1.093     0.        0. 
 C                     1.655     1.421     0. 
 H                     1.41     -0.56     -0.885 
 H                     1.424    -0.557     0.88 
 H                     1.308     1.969    -0.883 
 Si                    3.513     1.515     0.035 
 H                     1.282     1.975     0.868 
 O                     4.126     2.525    -1.115 
 O                     4.042    -0.027    -0.163 
 H                     4.046     2.075     1.304 
 H                     3.862     2.374    -2.023 
 C                     5.398    -0.401    -0.115 
 H                     5.459    -1.488    -0.204 
 H                     5.863    -0.105     0.832 
 H                     5.968     0.049    -0.934 
 
                          Input orientation:                          
 ---------------------------------------------------------------------
 Center     Atomic      Atomic             Coordinates (Angstroms)
 Number     Number       Type             X           Y           Z
 ---------------------------------------------------------------------
      1          1           0        0.000000    0.000000    0.000000
      2          6           0        1.093000    0.000000    0.000000
      3          6           0        1.655000    1.421000    0.000000
      4          1           0        1.410000   -0.560000   -0.885000
      5          1           0        1.424000   -0.557000    0.880000
      6          1           0        1.308000    1.969000   -0.883000
      7         14           0        3.513000    1.515000    0.035000
      8          1           0        1.282000    1.975000    0.868000
      9          8           0        4.126000    2.525000   -1.115000
     10          8           0        4.042000   -0.027000   -0.163000
     11          1           0        4.046000    2.075000    1.304000
     12          1           0        3.862000    2.374000   -2.023000
     13          6           0        5.398000   -0.401000   -0.115000
     14          1           0        5.459000   -1.488000   -0.204000
     15          1           0        5.863000   -0.105000    0.832000
     16          1           0        5.968000    0.049000   -0.934000
 ---------------------------------------------------------------------
                    Distance matrix (angstroms):
                    1          2          3          4          5
     1  H    0.000000
     2  C    1.093000   0.000000
     3  C    2.181345   1.528098   0.000000
     4  H    1.756395   1.094218   2.183486   0.000000
     5  H    1.764207   1.092799   2.177210   1.765058   0.000000
     6  H    2.523393   2.168611   1.095629   2.531057   3.082580
     7  Si   3.825914   2.855320   1.860706   3.094291   3.061230
     8  H    2.509497   2.165588   1.095203   3.084740   2.536007
     9  O    4.964144   4.100968   2.927094   4.116647   4.558459
    10  O    4.045375   2.953625   2.796613   2.780791   2.867520
    11  H    4.730344   3.837480   2.800895   4.322435   3.739262
    12  H    4.964217   4.170823   3.141908   3.989449   4.791870
    13  C    5.414095   4.325165   4.164488   4.064766   4.099639
    14  H    5.661841   4.617111   4.793153   4.209435   4.280542
    15  H    5.922670   4.843155   4.552819   4.794197   4.462211
    16  H    6.040843   4.963908   4.621332   4.598766   4.930088
                    6          7          8          9         10
     6  H    0.000000
     7  Si   2.431227   0.000000
     8  H    1.751203   2.425459   0.000000
     9  O    2.881681   1.648748   3.510431   0.000000
    10  O    3.460805   1.642196   3.562101   2.725081   0.000000
    11  H    3.505831   1.485951   2.799963   2.461800   2.563300
    12  H    2.826047   2.257221   3.895315   0.957581   3.042499
    13  C    4.789032   2.691985   4.853156   3.343570   1.407450
    14  H    5.444510   3.586369   5.530722   4.325619   2.035704
    15  H    5.290626   2.963462   5.031228   3.704710   2.076572
    16  H    5.040298   3.019129   5.377293   3.091327   2.075980
                   11         12         13         14         15
    11  H    0.000000
    12  H    3.345472   0.000000
    13  C    3.157854   3.701403   0.000000
    14  H    4.118932   4.557874   1.092342   0.000000
    15  H    2.876921   4.277905   1.095742   1.774599   0.000000
    16  H    3.578743   3.320660   1.094605   1.776049   1.775809
                   16
    16  H    0.000000
 Stoichiometry    C3H10O2Si
 Framework group  C1[X(C3H10O2Si)]
 Deg. of freedom    42
 Full point group                 C1      NOp   1
 Largest Abelian subgroup         C1      NOp   1
 Largest concise Abelian subgroup C1      NOp   1
                         Standard orientation:                         
 ---------------------------------------------------------------------
 Center     Atomic      Atomic             Coordinates (Angstroms)
 Number     Number       Type             X           Y           Z
 ---------------------------------------------------------------------
      1          1           0       -3.251143   -1.166881   -0.366968
      2          6           0       -2.166354   -1.090349   -0.257317
      3          6           0       -1.740270    0.321137    0.144235
      4          1           0       -1.729157   -1.387309   -1.215434
      5          1           0       -1.856498   -1.825353    0.489656
      6          1           0       -2.064932    1.047082   -0.609424
      7         14           0        0.092266    0.533240    0.387235
      8          1           0       -2.231132    0.612639    1.078874
      9          8           0        0.698900    1.839368   -0.415507
     10          8           0        0.776014   -0.869118   -0.125298
     11          1           0        0.468017    0.793571    1.801126
     12          1           0        0.523393    1.902420   -1.354753
     13          6           0        2.152656   -1.147328   -0.033797
     14          1           0        2.321046   -2.170393   -0.377590
     15          1           0        2.511100   -1.066057    0.998464
     16          1           0        2.742077   -0.467829   -0.657516
 ---------------------------------------------------------------------
 Rotational constants (GHZ):      3.5534115      2.1915031      1.5037329
 Standard basis: def2TZVP (5D, 7F)
 There are   252 symmetry adapted basis functions of A   symmetry.
 Integral buffers will be    131072 words long.
 Raffenetti 2 integral format.
 Two-electron integral symmetry is turned on.
   252 basis functions,   404 primitive gaussians,   282 cartesian basis functions
    29 alpha electrons       29 beta electrons
       nuclear repulsion energy       329.8470310394 Hartrees.
 NAtoms=   16 NActive=   16 NUniq=   16 SFac= 1.00D+00 NAtFMM=   60 NAOKFM=F Big=F
 One-electron integrals computed using PRISM.
   1 Symmetry operations used in ECPInt.
 ECPInt:  NShTT=    5886 NPrTT=   17754 LenC2=    5783 LenP2D=   13926.
 LDataN:  DoStor=T MaxTD1= 6 Len=  172
 NBasis=   252 RedAO= T  NBF=   252
 NBsUse=   252 1.00D-06 NBFU=   252
 Harris functional with IExCor= 1009 diagonalized for initial guess.
 ExpMin= 7.01D-02 ExpMax= 4.48D+04 ExpMxC= 1.53D+03 IAcc=2 IRadAn=         4 AccDes= 0.00D+00
 HarFok:  IExCor= 1009 AccDes= 0.00D+00 IRadAn=         4 IDoV= 1
 ScaDFX=  1.000000  1.000000  1.000000  1.000000
 FoFCou: FMM=F IPFlag=           0 FMFlag=      100000 FMFlg1=           0
         NFxFlg=           0 DoJE=T BraDBF=F KetDBF=T FulRan=T
         Omega=  0.000000  0.000000  1.000000  0.000000  0.000000 ICntrl=     500 IOpCl=  0
         NMat0=    1 NMatS0=    1 NMatT0=    0 NMatD0=    1 NMtDS0=    0 NMtDT0=    0
         I1Cent=           4 NGrid=           0.
 Petite list used in FoFCou.
 Initial guess orbital symmetries:
       Occupied  (A) (A) (A) (A) (A) (A) (A) (A) (A) (A) (A) (A)
                 (A) (A) (A) (A) (A) (A) (A) (A) (A) (A) (A) (A)
                 (A) (A) (A) (A) (A)
       Virtual   (A) (A) (A) (A) (A) (A) (A) (A) (A) (A) (A) (A)
                 (A) (A) (A) (A) (A) (A) (A) (A) (A) (A) (A) (A)
                 (A) (A) (A) (A) (A) (A) (A) (A) (A) (A) (A) (A)
                 (A) (A) (A) (A) (A) (A) (A) (A) (A) (A) (A) (A)
                 (A) (A) (A) (A) (A) (A) (A) (A) (A) (A) (A) (A)
                 (A) (A) (A) (A) (A) (A) (A) (A) (A) (A) (A) (A)
                 (A) (A) (A) (A) (A) (A) (A) (A) (A) (A) (A) (A)
                 (A) (A) (A) (A) (A) (A) (A) (A) (A) (A) (A) (A)
                 (A) (A) (A) (A) (A) (A) (A) (A) (A) (A) (A) (A)
                 (A) (A) (A) (A) (A) (A) (A) (A) (A) (A) (A) (A)
                 (A) (A) (A) (A) (A) (A) (A) (A) (A) (A) (A) (A)
                 (A) (A) (A) (A) (A) (A) (A) (A) (A) (A) (A) (A)
                 (A) (A) (A) (A) (A) (A) (A) (A) (A) (A) (A) (A)
                 (A) (A) (A) (A) (A) (A) (A) (A) (A) (A) (A) (A)
                 (A) (A) (A) (A) (A) (A) (A) (A) (A) (A) (A) (A)
                 (A) (A) (A) (A) (A) (A) (A) (A) (A) (A) (A) (A)
                 (A) (A) (A) (A) (A) (A) (A) (A) (A) (A) (A) (A)
                 (A) (A) (A) (A) (A) (A) (A) (A) (A) (A) (A) (A)
                 (A) (A) (A) (A) (A) (A) (A)
 The electronic state of the initial guess is 1-A.
 Requested convergence on RMS density matrix=1.00D-08 within 128 cycles.
 Requested convergence on MAX density matrix=1.00D-06.
 Requested convergence on             energy=1.00D-06.
 No special actions if energy rises.
 Integral accuracy reduced to 1.0D-05 until final iterations.
 Initial convergence to 1.0D-05 achieved.  Increase integral accuracy.
 SCF Done:  E(RPBE1PBE) =  -560.058728602     A.U. after   12 cycles
             Convg  =    0.7760D-08             -V/T =  2.0032

 **********************************************************************

            Population analysis using the SCF density.

 **********************************************************************

 Orbital symmetries:
       Occupied  (A) (A) (A) (A) (A) (A) (A) (A) (A) (A) (A) (A)
                 (A) (A) (A) (A) (A) (A) (A) (A) (A) (A) (A) (A)
                 (A) (A) (A) (A) (A)
       Virtual   (A) (A) (A) (A) (A) (A) (A) (A) (A) (A) (A) (A)
                 (A) (A) (A) (A) (A) (A) (A) (A) (A) (A) (A) (A)
                 (A) (A) (A) (A) (A) (A) (A) (A) (A) (A) (A) (A)
                 (A) (A) (A) (A) (A) (A) (A) (A) (A) (A) (A) (A)
                 (A) (A) (A) (A) (A) (A) (A) (A) (A) (A) (A) (A)
                 (A) (A) (A) (A) (A) (A) (A) (A) (A) (A) (A) (A)
                 (A) (A) (A) (A) (A) (A) (A) (A) (A) (A) (A) (A)
                 (A) (A) (A) (A) (A) (A) (A) (A) (A) (A) (A) (A)
                 (A) (A) (A) (A) (A) (A) (A) (A) (A) (A) (A) (A)
                 (A) (A) (A) (A) (A) (A) (A) (A) (A) (A) (A) (A)
                 (A) (A) (A) (A) (A) (A) (A) (A) (A) (A) (A) (A)
                 (A) (A) (A) (A) (A) (A) (A) (A) (A) (A) (A) (A)
                 (A) (A) (A) (A) (A) (A) (A) (A) (A) (A) (A) (A)
                 (A) (A) (A) (A) (A) (A) (A) (A) (A) (A) (A) (A)
                 (A) (A) (A) (A) (A) (A) (A) (A) (A) (A) (A) (A)
                 (A) (A) (A) (A) (A) (A) (A) (A) (A) (A) (A) (A)
                 (A) (A) (A) (A) (A) (A) (A) (A) (A) (A) (A) (A)
                 (A) (A) (A) (A) (A) (A) (A) (A) (A) (A) (A) (A)
                 (A) (A) (A) (A) (A) (A) (A)
 The electronic state is 1-A.
 Alpha  occ. eigenvalues --  -66.25395 -19.20214 -19.20053 -10.26458 -10.21003
 Alpha  occ. eigenvalues --  -10.20774  -5.33062  -3.66594  -3.66474  -3.66331
 Alpha  occ. eigenvalues --   -1.04502  -1.02311  -0.77859  -0.70447  -0.63741
 Alpha  occ. eigenvalues --   -0.56711  -0.51236  -0.47054  -0.46816  -0.45495
 Alpha  occ. eigenvalues --   -0.42537  -0.40873  -0.39004  -0.37863  -0.35976
 Alpha  occ. eigenvalues --   -0.35069  -0.31690  -0.30628  -0.29559
 Alpha virt. eigenvalues --    0.03109   0.04256   0.05665   0.08264   0.08694
 Alpha virt. eigenvalues --    0.10573   0.11054   0.11636   0.12453   0.13207
 Alpha virt. eigenvalues --    0.14146   0.14701   0.15313   0.18402   0.19522
 Alpha virt. eigenvalues --    0.21760   0.22255   0.23980   0.24798   0.25086
 Alpha virt. eigenvalues --    0.26420   0.28201   0.29624   0.30584   0.31751
 Alpha virt. eigenvalues --    0.35992   0.36429   0.38248   0.39304   0.40770
 Alpha virt. eigenvalues --    0.42267   0.43253   0.43583   0.44491   0.45523
 Alpha virt. eigenvalues --    0.46273   0.47153   0.47894   0.50777   0.51387
 Alpha virt. eigenvalues --    0.52124   0.53864   0.55295   0.56114   0.58495
 Alpha virt. eigenvalues --    0.59540   0.60816   0.65037   0.67020   0.67315
 Alpha virt. eigenvalues --    0.72965   0.75946   0.78458   0.79799   0.81607
 Alpha virt. eigenvalues --    0.82523   0.83616   0.86821   0.88896   0.93498
 Alpha virt. eigenvalues --    0.93917   0.95332   0.96288   1.00944   1.02534
 Alpha virt. eigenvalues --    1.04976   1.07219   1.08561   1.09407   1.10321
 Alpha virt. eigenvalues --    1.12368   1.14451   1.16025   1.19340   1.22512
 Alpha virt. eigenvalues --    1.24571   1.29167   1.33981   1.35879   1.39165
 Alpha virt. eigenvalues --    1.42357   1.46460   1.48797   1.50642   1.52395
 Alpha virt. eigenvalues --    1.52621   1.54613   1.55546   1.58052   1.58827
 Alpha virt. eigenvalues --    1.59964   1.60506   1.61586   1.63063   1.66612
 Alpha virt. eigenvalues --    1.67450   1.71601   1.76871   1.78530   1.80913
 Alpha virt. eigenvalues --    1.81925   1.85470   1.86978   1.89741   1.92467
 Alpha virt. eigenvalues --    1.94350   1.97094   1.97841   2.00777   2.03096
 Alpha virt. eigenvalues --    2.05945   2.09144   2.11197   2.13224   2.15141
 Alpha virt. eigenvalues --    2.17166   2.18511   2.23437   2.26907   2.30747
 Alpha virt. eigenvalues --    2.31011   2.33675   2.34524   2.35818   2.36191
 Alpha virt. eigenvalues --    2.39048   2.41852   2.46860   2.47933   2.49369
 Alpha virt. eigenvalues --    2.51341   2.52905   2.55857   2.57274   2.57636
 Alpha virt. eigenvalues --    2.59704   2.61906   2.65429   2.66959   2.70916
 Alpha virt. eigenvalues --    2.73363   2.76136   2.78424   2.82953   2.84737
 Alpha virt. eigenvalues --    2.86146   2.93260   2.97237   2.97413   3.01759
 Alpha virt. eigenvalues --    3.04208   3.09821   3.11051   3.12921   3.15720
 Alpha virt. eigenvalues --    3.21744   3.22371   3.24134   3.29098   3.29858
 Alpha virt. eigenvalues --    3.32305   3.36595   3.37526   3.42325   3.44691
 Alpha virt. eigenvalues --    3.45535   3.46996   3.49476   3.53352   3.54191
 Alpha virt. eigenvalues --    3.58665   3.60597   3.62040   3.66299   3.76961
 Alpha virt. eigenvalues --    3.82382   3.88006   3.92654   3.96974   4.02914
 Alpha virt. eigenvalues --    4.19040   4.24779   4.25565   4.35300   4.36946
 Alpha virt. eigenvalues --    4.44095   4.47379   4.54540   4.57117   4.80272
 Alpha virt. eigenvalues --    5.15605   5.16878   5.17934   5.18215   5.28444
 Alpha virt. eigenvalues --    5.29317   5.38724   5.41764   5.45517   5.50339
 Alpha virt. eigenvalues --    5.80031   5.86846   6.06210   6.23020   6.39616
 Alpha virt. eigenvalues --    6.41741   6.53361   6.58682   6.61249   6.66010
 Alpha virt. eigenvalues --    6.67406   6.78165   6.82027   6.98083   7.06034
 Alpha virt. eigenvalues --    7.18457   7.22662  11.90373  22.38237  22.42565
 Alpha virt. eigenvalues --   22.45498  43.60689  43.98124
          Condensed to atoms (all electrons):
              1          2          3          4          5          6
     1  H    0.579427   0.397356  -0.030504  -0.030361  -0.027007  -0.007149
     2  C    0.397356   4.893611   0.304088   0.411365   0.409487  -0.031127
     3  C   -0.030504   0.304088   5.093336  -0.037409  -0.036909   0.379079
     4  H   -0.030361   0.411365  -0.037409   0.553289  -0.019679  -0.003935
     5  H   -0.027007   0.409487  -0.036909  -0.019679   0.553067   0.008005
     6  H   -0.007149  -0.031127   0.379079  -0.003935   0.008005   0.585721
     7  Si   0.005710  -0.022547   0.422819  -0.006926  -0.007034  -0.026117
     8  H   -0.008206  -0.025078   0.381559   0.007285  -0.004090  -0.023204
     9  O   -0.000133   0.002216  -0.045773  -0.000055   0.000021   0.000534
    10  O    0.000905   0.001134  -0.038620   0.004253   0.002371   0.001138
    11  H   -0.000203   0.002757  -0.040168   0.000347   0.000779   0.002850
    12  H   -0.000012   0.000217  -0.003616  -0.000014   0.000024   0.002217
    13  C   -0.000003  -0.000606   0.002764   0.000206  -0.000070  -0.000103
    14  H   -0.000024  -0.000074  -0.000071  -0.000051  -0.000027   0.000014
    15  H    0.000003  -0.000001  -0.000282   0.000066   0.000060   0.000000
    16  H    0.000010   0.000101   0.000362  -0.000056   0.000024  -0.000007
              7          8          9         10         11         12
     1  H    0.005710  -0.008206  -0.000133   0.000905  -0.000203  -0.000012
     2  C   -0.022547  -0.025078   0.002216   0.001134   0.002757   0.000217
     3  C    0.422819   0.381559  -0.045773  -0.038620  -0.040168  -0.003616
     4  H   -0.006926   0.007285  -0.000055   0.004253   0.000347  -0.000014
     5  H   -0.007034  -0.004090   0.000021   0.002371   0.000779   0.000024
     6  H   -0.026117  -0.023204   0.000534   0.001138   0.002850   0.002217
     7  Si  11.876042  -0.022884   0.481384   0.445190   0.392225  -0.026166
     8  H   -0.022884   0.568071   0.001572   0.001215  -0.000427  -0.000124
     9  O    0.481384   0.001572   7.843240  -0.034984  -0.017103   0.298832
    10  O    0.445190   0.001215  -0.034984   7.835807  -0.026048  -0.001109
    11  H    0.392225  -0.000427  -0.017103  -0.026048   0.736919   0.004291
    12  H   -0.026166  -0.000124   0.298832  -0.001109   0.004291   0.407045
    13  C   -0.048785  -0.000142  -0.006851   0.263589   0.002521   0.000765
    14  H    0.008910   0.000011   0.000065  -0.042886  -0.000202   0.000017
    15  H   -0.017262   0.000005  -0.000508  -0.042665   0.009829  -0.000022
    16  H   -0.006145  -0.000015   0.006529  -0.041245  -0.002003   0.000285
             13         14         15         16
     1  H   -0.000003  -0.000024   0.000003   0.000010
     2  C   -0.000606  -0.000074  -0.000001   0.000101
     3  C    0.002764  -0.000071  -0.000282   0.000362
     4  H    0.000206  -0.000051   0.000066  -0.000056
     5  H   -0.000070  -0.000027   0.000060   0.000024
     6  H   -0.000103   0.000014   0.000000  -0.000007
     7  Si  -0.048785   0.008910  -0.017262  -0.006145
     8  H   -0.000142   0.000011   0.000005  -0.000015
     9  O   -0.006851   0.000065  -0.000508   0.006529
    10  O    0.263589  -0.042886  -0.042665  -0.041245
    11  H    0.002521  -0.000202   0.009829  -0.002003
    12  H    0.000765   0.000017  -0.000022   0.000285
    13  C    4.770752   0.402668   0.419229   0.410611
    14  H    0.402668   0.569018  -0.031088  -0.033937
    15  H    0.419229  -0.031088   0.591676  -0.047136
    16  H    0.410611  -0.033937  -0.047136   0.593220
 Mulliken atomic charges:
              1
     1  H    0.120190
     2  C   -0.342899
     3  C   -0.350656
     4  H    0.121675
     5  H    0.120977
     6  H    0.112083
     7  Si   0.551586
     8  H    0.124452
     9  O   -0.528985
    10  O   -0.328044
    11  H   -0.066363
    12  H    0.317371
    13  C   -0.216543
    14  H    0.127658
    15  H    0.118096
    16  H    0.119403
 Sum of Mulliken atomic charges =   0.00000
 Mulliken charges with hydrogens summed into heavy atoms:
              1
     2  C    0.019943
     3  C   -0.114122
     7  Si   0.485223
     9  O   -0.211615
    10  O   -0.328044
    13  C    0.148614
 Sum of Mulliken charges with hydrogens summed into heavy atoms =   0.00000
 Electronic spatial extent (au):  <R**2>=            864.3015
 Charge=              0.0000 electrons
 Dipole moment (field-independent basis, Debye):
    X=             -0.1446    Y=             -0.3724    Z=             -1.0488  Tot=              1.1223
 Quadrupole moment (field-independent basis, Debye-Ang):
   XX=            -42.8639   YY=            -48.0188   ZZ=            -42.5499
   XY=             -3.2897   XZ=             -0.7442   YZ=             -3.0500
 Traceless Quadrupole moment (field-independent basis, Debye-Ang):
   XX=              1.6136   YY=             -3.5412   ZZ=              1.9276
   XY=             -3.2897   XZ=             -0.7442   YZ=             -3.0500
 Octapole moment (field-independent basis, Debye-Ang**2):
  XXX=             13.0284  YYY=             -4.0099  ZZZ=            -11.1575  XYY=              0.9049
  XXY=             -4.0253  XXZ=             -0.9262  XZZ=              2.6072  YZZ=              6.5354
  YYZ=             -6.4134  XYZ=             -0.8606
 Hexadecapole moment (field-independent basis, Debye-Ang**3):
 XXXX=           -666.8952 YYYY=           -382.4190 ZZZZ=           -114.7784 XXXY=            -11.3680
 XXXZ=             -4.3572 YYYX=            -15.6275 YYYZ=            -14.8798 ZZZX=             -6.9174
 ZZZY=            -17.8132 XXYY=           -175.7610 XXZZ=           -130.3265 YYZZ=            -69.1318
 XXYZ=             -2.1185 YYXZ=             -4.6036 ZZXY=              1.4470
 N-N= 3.298470310394D+02 E-N=-1.983755359842D+03  KE= 5.582572843778D+02
 1\1\GINC-TARSUS2\SP\RPBE1PBE\def2TZVP\C3H10O2Si1\RENATO\29-Jun-2018\0\
 \#SP PBE1PBE/Def2TZVP geom=connectivity\\Structure: 3\\0,1\H,0,0.,0.,0
 .\C,0,1.093,0.,0.\C,0,1.655,1.421,0.\H,0,1.41,-0.56,-0.885\H,0,1.424,-
 0.557,0.88\H,0,1.308,1.969,-0.883\Si,0,3.513,1.515,0.035\H,0,1.282,1.9
 75,0.868\O,0,4.126,2.525,-1.115\O,0,4.042,-0.027,-0.163\H,0,4.046,2.07
 5,1.304\H,0,3.862,2.374,-2.023\C,0,5.398,-0.401,-0.115\H,0,5.459,-1.48
 8,-0.204\H,0,5.863,-0.105,0.832\H,0,5.968,0.049,-0.934\\Version=EM64L-
 G09RevC.01\State=1-A\HF=-560.0587286\RMSD=7.760e-09\Dipole=-0.1081146,
 -0.23644,-0.3568759\Quadrupole=0.701272,-2.9610873,2.2598154,-2.968049
 4,0.0896082,-0.8013829\PG=C01 [X(C3H10O2Si1)]\\@


 "I COULD HAVE DONE IT IN A MUCH MORE COMPLICATED WAY"
 SAID THE RED QUEEN, IMMENSELY PROUD.

                                      -- LEWIS CARROLL
 Job cpu time:  0 days  0 hours  9 minutes 34.7 seconds.
 File lengths (MBytes):  RWF=     40 Int=      0 D2E=      0 Chk=      3 Scr=      1
 Normal termination of Gaussian 09 at Fri Jun 29 12:37:36 2018.
