 Entering Gaussian System, Link 0=g09
 Initial command:
 /usr/local/gaussian09/g09/l1.exe /scratch/renato/Gau-29680.inp -scrdir=/scratch/renato/
 Entering Link 1 = /usr/local/gaussian09/g09/l1.exe PID=     29682.
  
 Copyright (c) 1988,1990,1992,1993,1995,1998,2003,2009,2011,
            Gaussian, Inc.  All Rights Reserved.
  
 This is part of the Gaussian(R) 09 program.  It is based on
 the Gaussian(R) 03 system (copyright 2003, Gaussian, Inc.),
 the Gaussian(R) 98 system (copyright 1998, Gaussian, Inc.),
 the Gaussian(R) 94 system (copyright 1995, Gaussian, Inc.),
 the Gaussian 92(TM) system (copyright 1992, Gaussian, Inc.),
 the Gaussian 90(TM) system (copyright 1990, Gaussian, Inc.),
 the Gaussian 88(TM) system (copyright 1988, Gaussian, Inc.),
 the Gaussian 86(TM) system (copyright 1986, Carnegie Mellon
 University), and the Gaussian 82(TM) system (copyright 1983,
 Carnegie Mellon University). Gaussian is a federally registered
 trademark of Gaussian, Inc.
  
 This software contains proprietary and confidential information,
 including trade secrets, belonging to Gaussian, Inc.
  
 This software is provided under written license and may be
 used, copied, transmitted, or stored only in accord with that
 written license.
  
 The following legend is applicable only to US Government
 contracts under FAR:
  
                    RESTRICTED RIGHTS LEGEND
  
 Use, reproduction and disclosure by the US Government is
 subject to restrictions as set forth in subparagraphs (a)
 and (c) of the Commercial Computer Software - Restricted
 Rights clause in FAR 52.227-19.
  
 Gaussian, Inc.
 340 Quinnipiac St., Bldg. 40, Wallingford CT 06492
  
  
 ---------------------------------------------------------------
 Warning -- This program may not be used in any manner that
 competes with the business of Gaussian, Inc. or will provide
 assistance to any competitor of Gaussian, Inc.  The licensee
 of this program is prohibited from giving any competitor of
 Gaussian, Inc. access to this program.  By using this program,
 the user acknowledges that Gaussian, Inc. is engaged in the
 business of creating and licensing software in the field of
 computational chemistry and represents and warrants to the
 licensee that it is not a competitor of Gaussian, Inc. and that
 it will not use this program in any manner prohibited above.
 ---------------------------------------------------------------
  

 Cite this work as:
 Gaussian 09, Revision C.01,
 M. J. Frisch, G. W. Trucks, H. B. Schlegel, G. E. Scuseria, 
 M. A. Robb, J. R. Cheeseman, G. Scalmani, V. Barone, B. Mennucci, 
 G. A. Petersson, H. Nakatsuji, M. Caricato, X. Li, H. P. Hratchian, 
 A. F. Izmaylov, J. Bloino, G. Zheng, J. L. Sonnenberg, M. Hada, 
 M. Ehara, K. Toyota, R. Fukuda, J. Hasegawa, M. Ishida, T. Nakajima, 
 Y. Honda, O. Kitao, H. Nakai, T. Vreven, J. A. Montgomery, Jr., 
 J. E. Peralta, F. Ogliaro, M. Bearpark, J. J. Heyd, E. Brothers, 
 K. N. Kudin, V. N. Staroverov, T. Keith, R. Kobayashi, J. Normand, 
 K. Raghavachari, A. Rendell, J. C. Burant, S. S. Iyengar, J. Tomasi, 
 M. Cossi, N. Rega, J. M. Millam, M. Klene, J. E. Knox, J. B. Cross, 
 V. Bakken, C. Adamo, J. Jaramillo, R. Gomperts, R. E. Stratmann, 
 O. Yazyev, A. J. Austin, R. Cammi, C. Pomelli, J. W. Ochterski, 
 R. L. Martin, K. Morokuma, V. G. Zakrzewski, G. A. Voth, 
 P. Salvador, J. J. Dannenberg, S. Dapprich, A. D. Daniels, 
 O. Farkas, J. B. Foresman, J. V. Ortiz, J. Cioslowski, 
 and D. J. Fox, Gaussian, Inc., Wallingford CT, 2010.
 
 ******************************************
 Gaussian 09:  EM64L-G09RevC.01 23-Sep-2011
                29-Jun-2018 
 ******************************************
 %nproc=2
 Will use up to    2 processors via shared memory.
 %mem=256MB
 %RWF=d23.rwf
 %chk=d2350
 %NoSave
 --------------------------------------
 #SP PBE1PBE/Def2TZVP geom=connectivity
 --------------------------------------
 1/38=1,57=2/1;
 2/12=2,17=6,18=5,40=1/2;
 3/5=44,7=101,11=2,16=1,25=1,30=1,74=-13/1,2,3;
 4//1;
 5/5=2,38=5/2;
 6/7=2,8=2,9=2,10=2,28=1/1;
 99/5=1,9=1/99;
 -------------
 Structure: 50
 -------------
 Charge =  0 Multiplicity = 1
 Symbolic Z-Matrix:
 H                     0.        0.        0. 
 C                     1.093     0.        0. 
 C                     1.655     1.421     0. 
 H                     1.41     -0.56     -0.885 
 H                     1.424    -0.557     0.88 
 H                     1.308     1.969    -0.883 
 Si                    3.513     1.515     0.035 
 H                     1.282     1.975     0.868 
 O                     4.078     2.637     1.104 
 O                     3.972     1.854    -1.505 
 H                     4.154     0.255     0.49 
 H                     3.746     3.532     1.023 
 C                     5.314     1.931    -1.923 
 H                     5.33      2.097    -3.002 
 H                     5.855     1.003    -1.706 
 H                     5.84      2.758    -1.434 
 
                          Input orientation:                          
 ---------------------------------------------------------------------
 Center     Atomic      Atomic             Coordinates (Angstroms)
 Number     Number       Type             X           Y           Z
 ---------------------------------------------------------------------
      1          1           0        0.000000    0.000000    0.000000
      2          6           0        1.093000    0.000000    0.000000
      3          6           0        1.655000    1.421000    0.000000
      4          1           0        1.410000   -0.560000   -0.885000
      5          1           0        1.424000   -0.557000    0.880000
      6          1           0        1.308000    1.969000   -0.883000
      7         14           0        3.513000    1.515000    0.035000
      8          1           0        1.282000    1.975000    0.868000
      9          8           0        4.078000    2.637000    1.104000
     10          8           0        3.972000    1.854000   -1.505000
     11          1           0        4.154000    0.255000    0.490000
     12          1           0        3.746000    3.532000    1.023000
     13          6           0        5.314000    1.931000   -1.923000
     14          1           0        5.330000    2.097000   -3.002000
     15          1           0        5.855000    1.003000   -1.706000
     16          1           0        5.840000    2.758000   -1.434000
 ---------------------------------------------------------------------
                    Distance matrix (angstroms):
                    1          2          3          4          5
     1  H    0.000000
     2  C    1.093000   0.000000
     3  C    2.181345   1.528098   0.000000
     4  H    1.756395   1.094218   2.183486   0.000000
     5  H    1.764207   1.092799   2.177210   1.765058   0.000000
     6  H    2.523393   2.168611   1.095629   2.531057   3.082580
     7  Si   3.825914   2.855320   1.860706   3.094291   3.061230
     8  H    2.509497   2.165588   1.095203   3.084740   2.536007
     9  O    4.980228   4.133136   2.927183   4.614667   4.158789
    10  O    4.634558   3.740452   2.796606   3.574303   4.241869
    11  H    4.190566   3.110441   2.800831   3.175592   2.874777
    12  H    5.249197   4.534309   3.142472   5.083485   4.704472
    13  C    5.972042   5.024294   4.164890   4.745918   5.401764
    14  H    6.466708   5.600141   4.793183   5.187267   6.113140
    15  H    6.180410   5.156849   4.552489   4.782785   5.362346
    16  H    6.615778   5.674234   4.621488   5.561962   5.987059
                    6          7          8          9         10
     6  H    0.000000
     7  Si   2.431227   0.000000
     8  H    1.751203   2.425459   0.000000
     9  O    3.473801   1.649506   2.882977   0.000000
    10  O    2.738066   1.642316   3.589132   2.726024   0.000000
    11  H    3.594808   1.485095   3.368927   2.461036   2.563191
    12  H    3.466937   2.258035   2.918830   0.958024   3.042621
    13  C    4.138971   2.692661   4.903941   3.344975   1.407699
    14  H    4.547860   3.586584   5.601615   4.326470   2.035736
    15  H    4.720773   2.962801   5.336908   3.704563   2.076124
    16  H    4.633049   3.019593   5.166010   3.092043   2.076459
                   11         12         13         14         15
    11  H    0.000000
    12  H    3.345038   0.000000
    13  C    3.158662   3.701451   0.000000
    14  H    4.119466   4.557292   1.091812   0.000000
    15  H    2.876686   4.276817   1.095880   1.775409   0.000000
    16  H    3.579020   3.319753   1.095320   1.776414   1.776016
                   16
    16  H    0.000000
 Stoichiometry    C3H10O2Si
 Framework group  C1[X(C3H10O2Si)]
 Deg. of freedom    42
 Full point group                 C1      NOp   1
 Largest Abelian subgroup         C1      NOp   1
 Largest concise Abelian subgroup C1      NOp   1
                         Standard orientation:                         
 ---------------------------------------------------------------------
 Center     Atomic      Atomic             Coordinates (Angstroms)
 Number     Number       Type             X           Y           Z
 ---------------------------------------------------------------------
      1          1           0       -3.554767   -0.885177   -0.268944
      2          6           0       -2.607949   -0.754580    0.261272
      3          6           0       -1.594329    0.019086   -0.580810
      4          1           0       -2.244540   -1.755677    0.512375
      5          1           0       -2.822436   -0.235722    1.198817
      6          1           0       -1.396034   -0.508737   -1.520216
      7         14           0        0.038300    0.317903    0.260295
      8          1           0       -2.002779    0.995899   -0.860941
      9          8           0        0.585644    1.861934    0.067286
     10          8           0        1.077361   -0.782137   -0.378037
     11          1           0       -0.025918    0.159039    1.735471
     12          1           0        0.656964    2.197646   -0.827152
     13          6           0        2.408418   -0.942722    0.051050
     14          1           0        2.845197   -1.785537   -0.488338
     15          1           0        2.460363   -1.152995    1.125313
     16          1           0        3.006873   -0.048459   -0.153578
 ---------------------------------------------------------------------
 Rotational constants (GHZ):      4.2320109      1.8013646      1.3974749
 Standard basis: def2TZVP (5D, 7F)
 There are   252 symmetry adapted basis functions of A   symmetry.
 Integral buffers will be    131072 words long.
 Raffenetti 2 integral format.
 Two-electron integral symmetry is turned on.
   252 basis functions,   404 primitive gaussians,   282 cartesian basis functions
    29 alpha electrons       29 beta electrons
       nuclear repulsion energy       326.2673112228 Hartrees.
 NAtoms=   16 NActive=   16 NUniq=   16 SFac= 1.00D+00 NAtFMM=   60 NAOKFM=F Big=F
 One-electron integrals computed using PRISM.
   1 Symmetry operations used in ECPInt.
 ECPInt:  NShTT=    5886 NPrTT=   17754 LenC2=    5746 LenP2D=   13775.
 LDataN:  DoStor=T MaxTD1= 6 Len=  172
 NBasis=   252 RedAO= T  NBF=   252
 NBsUse=   252 1.00D-06 NBFU=   252
 Harris functional with IExCor= 1009 diagonalized for initial guess.
 ExpMin= 7.01D-02 ExpMax= 4.48D+04 ExpMxC= 1.53D+03 IAcc=2 IRadAn=         4 AccDes= 0.00D+00
 HarFok:  IExCor= 1009 AccDes= 0.00D+00 IRadAn=         4 IDoV= 1
 ScaDFX=  1.000000  1.000000  1.000000  1.000000
 FoFCou: FMM=F IPFlag=           0 FMFlag=      100000 FMFlg1=           0
         NFxFlg=           0 DoJE=T BraDBF=F KetDBF=T FulRan=T
         Omega=  0.000000  0.000000  1.000000  0.000000  0.000000 ICntrl=     500 IOpCl=  0
         NMat0=    1 NMatS0=    1 NMatT0=    0 NMatD0=    1 NMtDS0=    0 NMtDT0=    0
         I1Cent=           4 NGrid=           0.
 Petite list used in FoFCou.
 Initial guess orbital symmetries:
       Occupied  (A) (A) (A) (A) (A) (A) (A) (A) (A) (A) (A) (A)
                 (A) (A) (A) (A) (A) (A) (A) (A) (A) (A) (A) (A)
                 (A) (A) (A) (A) (A)
       Virtual   (A) (A) (A) (A) (A) (A) (A) (A) (A) (A) (A) (A)
                 (A) (A) (A) (A) (A) (A) (A) (A) (A) (A) (A) (A)
                 (A) (A) (A) (A) (A) (A) (A) (A) (A) (A) (A) (A)
                 (A) (A) (A) (A) (A) (A) (A) (A) (A) (A) (A) (A)
                 (A) (A) (A) (A) (A) (A) (A) (A) (A) (A) (A) (A)
                 (A) (A) (A) (A) (A) (A) (A) (A) (A) (A) (A) (A)
                 (A) (A) (A) (A) (A) (A) (A) (A) (A) (A) (A) (A)
                 (A) (A) (A) (A) (A) (A) (A) (A) (A) (A) (A) (A)
                 (A) (A) (A) (A) (A) (A) (A) (A) (A) (A) (A) (A)
                 (A) (A) (A) (A) (A) (A) (A) (A) (A) (A) (A) (A)
                 (A) (A) (A) (A) (A) (A) (A) (A) (A) (A) (A) (A)
                 (A) (A) (A) (A) (A) (A) (A) (A) (A) (A) (A) (A)
                 (A) (A) (A) (A) (A) (A) (A) (A) (A) (A) (A) (A)
                 (A) (A) (A) (A) (A) (A) (A) (A) (A) (A) (A) (A)
                 (A) (A) (A) (A) (A) (A) (A) (A) (A) (A) (A) (A)
                 (A) (A) (A) (A) (A) (A) (A) (A) (A) (A) (A) (A)
                 (A) (A) (A) (A) (A) (A) (A) (A) (A) (A) (A) (A)
                 (A) (A) (A) (A) (A) (A) (A) (A) (A) (A) (A) (A)
                 (A) (A) (A) (A) (A) (A) (A)
 The electronic state of the initial guess is 1-A.
 Requested convergence on RMS density matrix=1.00D-08 within 128 cycles.
 Requested convergence on MAX density matrix=1.00D-06.
 Requested convergence on             energy=1.00D-06.
 No special actions if energy rises.
 Integral accuracy reduced to 1.0D-05 until final iterations.
 Initial convergence to 1.0D-05 achieved.  Increase integral accuracy.
 SCF Done:  E(RPBE1PBE) =  -560.059620987     A.U. after   12 cycles
             Convg  =    0.7555D-08             -V/T =  2.0032

 **********************************************************************

            Population analysis using the SCF density.

 **********************************************************************

 Orbital symmetries:
       Occupied  (A) (A) (A) (A) (A) (A) (A) (A) (A) (A) (A) (A)
                 (A) (A) (A) (A) (A) (A) (A) (A) (A) (A) (A) (A)
                 (A) (A) (A) (A) (A)
       Virtual   (A) (A) (A) (A) (A) (A) (A) (A) (A) (A) (A) (A)
                 (A) (A) (A) (A) (A) (A) (A) (A) (A) (A) (A) (A)
                 (A) (A) (A) (A) (A) (A) (A) (A) (A) (A) (A) (A)
                 (A) (A) (A) (A) (A) (A) (A) (A) (A) (A) (A) (A)
                 (A) (A) (A) (A) (A) (A) (A) (A) (A) (A) (A) (A)
                 (A) (A) (A) (A) (A) (A) (A) (A) (A) (A) (A) (A)
                 (A) (A) (A) (A) (A) (A) (A) (A) (A) (A) (A) (A)
                 (A) (A) (A) (A) (A) (A) (A) (A) (A) (A) (A) (A)
                 (A) (A) (A) (A) (A) (A) (A) (A) (A) (A) (A) (A)
                 (A) (A) (A) (A) (A) (A) (A) (A) (A) (A) (A) (A)
                 (A) (A) (A) (A) (A) (A) (A) (A) (A) (A) (A) (A)
                 (A) (A) (A) (A) (A) (A) (A) (A) (A) (A) (A) (A)
                 (A) (A) (A) (A) (A) (A) (A) (A) (A) (A) (A) (A)
                 (A) (A) (A) (A) (A) (A) (A) (A) (A) (A) (A) (A)
                 (A) (A) (A) (A) (A) (A) (A) (A) (A) (A) (A) (A)
                 (A) (A) (A) (A) (A) (A) (A) (A) (A) (A) (A) (A)
                 (A) (A) (A) (A) (A) (A) (A) (A) (A) (A) (A) (A)
                 (A) (A) (A) (A) (A) (A) (A) (A) (A) (A) (A) (A)
                 (A) (A) (A) (A) (A) (A) (A)
 The electronic state is 1-A.
 Alpha  occ. eigenvalues --  -66.25385 -19.20204 -19.20045 -10.26424 -10.21467
 Alpha  occ. eigenvalues --  -10.20715  -5.33052  -3.66577  -3.66461  -3.66327
 Alpha  occ. eigenvalues --   -1.04457  -1.02276  -0.78030  -0.70554  -0.63729
 Alpha  occ. eigenvalues --   -0.56829  -0.51105  -0.46826  -0.46521  -0.45659
 Alpha  occ. eigenvalues --   -0.44111  -0.40527  -0.38486  -0.37725  -0.36353
 Alpha  occ. eigenvalues --   -0.35250  -0.31838  -0.30503  -0.29683
 Alpha virt. eigenvalues --    0.03156   0.04686   0.05468   0.07343   0.09829
 Alpha virt. eigenvalues --    0.10427   0.11182   0.11496   0.12492   0.13187
 Alpha virt. eigenvalues --    0.13564   0.14448   0.16394   0.17368   0.18725
 Alpha virt. eigenvalues --    0.21607   0.22256   0.24209   0.24537   0.25331
 Alpha virt. eigenvalues --    0.27930   0.28437   0.28678   0.30034   0.30816
 Alpha virt. eigenvalues --    0.36614   0.36962   0.38499   0.39699   0.40549
 Alpha virt. eigenvalues --    0.41827   0.42919   0.43714   0.44484   0.45296
 Alpha virt. eigenvalues --    0.45995   0.46791   0.48475   0.48987   0.49119
 Alpha virt. eigenvalues --    0.52490   0.53481   0.55299   0.56112   0.58640
 Alpha virt. eigenvalues --    0.59619   0.60642   0.65617   0.67666   0.68312
 Alpha virt. eigenvalues --    0.71256   0.74062   0.76868   0.79890   0.80359
 Alpha virt. eigenvalues --    0.83001   0.86219   0.87509   0.88027   0.92163
 Alpha virt. eigenvalues --    0.93522   0.95692   0.97793   0.99383   1.00100
 Alpha virt. eigenvalues --    1.04272   1.06177   1.07393   1.09130   1.10390
 Alpha virt. eigenvalues --    1.12503   1.14149   1.16218   1.20235   1.21124
 Alpha virt. eigenvalues --    1.25800   1.28116   1.31705   1.36725   1.39962
 Alpha virt. eigenvalues --    1.42090   1.47263   1.48534   1.49668   1.51643
 Alpha virt. eigenvalues --    1.52419   1.54356   1.55606   1.57348   1.58207
 Alpha virt. eigenvalues --    1.58652   1.61478   1.62644   1.64877   1.67048
 Alpha virt. eigenvalues --    1.68570   1.71860   1.75713   1.76996   1.79151
 Alpha virt. eigenvalues --    1.82428   1.83965   1.86372   1.87730   1.91282
 Alpha virt. eigenvalues --    1.92414   1.96772   1.97578   1.99401   2.03140
 Alpha virt. eigenvalues --    2.05964   2.07874   2.10288   2.13491   2.15039
 Alpha virt. eigenvalues --    2.17944   2.21690   2.24080   2.26333   2.30102
 Alpha virt. eigenvalues --    2.32208   2.33032   2.34164   2.35145   2.36406
 Alpha virt. eigenvalues --    2.36970   2.40841   2.43158   2.46659   2.47688
 Alpha virt. eigenvalues --    2.51432   2.53040   2.55571   2.57037   2.58178
 Alpha virt. eigenvalues --    2.59633   2.62146   2.65520   2.67179   2.69802
 Alpha virt. eigenvalues --    2.71721   2.75797   2.78148   2.83374   2.83777
 Alpha virt. eigenvalues --    2.85807   2.93337   2.95533   2.99175   3.02324
 Alpha virt. eigenvalues --    3.03465   3.09518   3.10274   3.14005   3.15451
 Alpha virt. eigenvalues --    3.20563   3.21709   3.23600   3.29689   3.31510
 Alpha virt. eigenvalues --    3.32732   3.33060   3.35455   3.38066   3.44118
 Alpha virt. eigenvalues --    3.45452   3.47451   3.50277   3.53284   3.54781
 Alpha virt. eigenvalues --    3.58703   3.61743   3.63440   3.64844   3.77135
 Alpha virt. eigenvalues --    3.81603   3.87374   3.92204   3.95333   4.02163
 Alpha virt. eigenvalues --    4.19086   4.24313   4.25206   4.35082   4.36944
 Alpha virt. eigenvalues --    4.41629   4.47084   4.53762   4.55645   4.79103
 Alpha virt. eigenvalues --    5.15748   5.16811   5.17882   5.18456   5.28261
 Alpha virt. eigenvalues --    5.29271   5.38694   5.41915   5.45480   5.49916
 Alpha virt. eigenvalues --    5.79996   5.86711   6.02970   6.22918   6.38894
 Alpha virt. eigenvalues --    6.41831   6.53337   6.58800   6.59966   6.66165
 Alpha virt. eigenvalues --    6.67463   6.79280   6.82140   6.98350   7.05895
 Alpha virt. eigenvalues --    7.15687   7.22739  11.88999  22.36524  22.40848
 Alpha virt. eigenvalues --   22.45651  43.61228  43.93336
          Condensed to atoms (all electrons):
              1          2          3          4          5          6
     1  H    0.564431   0.405800  -0.030832  -0.027440  -0.027577  -0.006593
     2  C    0.405800   4.911245   0.300988   0.411960   0.411727  -0.025232
     3  C   -0.030832   0.300988   5.098908  -0.039864  -0.040307   0.375069
     4  H   -0.027440   0.411960  -0.039864   0.553364  -0.024772  -0.004933
     5  H   -0.027577   0.411727  -0.040307  -0.024772   0.554506   0.007560
     6  H   -0.006593  -0.025232   0.375069  -0.004933   0.007560   0.565321
     7  Si   0.005491  -0.008540   0.403990  -0.006761  -0.006579  -0.016743
     8  H   -0.008039  -0.026193   0.375837   0.008314  -0.004326  -0.027258
     9  O   -0.000171   0.001951  -0.044436   0.000011   0.000287   0.000599
    10  O   -0.000145  -0.000057  -0.035158   0.001195   0.000067   0.003492
    11  H    0.000021   0.003148  -0.043758   0.000300   0.002081   0.003040
    12  H    0.000007  -0.000091  -0.002808  -0.000002   0.000015   0.000232
    13  C    0.000014  -0.000133   0.002609  -0.000122   0.000020   0.000533
    14  H   -0.000001   0.000050  -0.000199  -0.000016   0.000000  -0.000058
    15  H    0.000004   0.000094  -0.000624   0.000009   0.000004   0.000121
    16  H    0.000000  -0.000074   0.000791   0.000014   0.000000  -0.000065
              7          8          9         10         11         12
     1  H    0.005491  -0.008039  -0.000171  -0.000145   0.000021   0.000007
     2  C   -0.008540  -0.026193   0.001951  -0.000057   0.003148  -0.000091
     3  C    0.403990   0.375837  -0.044436  -0.035158  -0.043758  -0.002808
     4  H   -0.006761   0.008314   0.000011   0.001195   0.000300  -0.000002
     5  H   -0.006579  -0.004326   0.000287   0.000067   0.002081   0.000015
     6  H   -0.016743  -0.027258   0.000599   0.003492   0.003040   0.000232
     7  Si  11.869219  -0.028195   0.477216   0.465496   0.387950  -0.027169
     8  H   -0.028195   0.591262   0.001080   0.001749   0.001940   0.000969
     9  O    0.477216   0.001080   7.847326  -0.034629  -0.017258   0.298665
    10  O    0.465496   0.001749  -0.034629   7.835962  -0.027509  -0.001291
    11  H    0.387950   0.001940  -0.017258  -0.027509   0.743618   0.004036
    12  H   -0.027169   0.000969   0.298665  -0.001291   0.004036   0.407479
    13  C   -0.051220  -0.000162  -0.007120   0.258689   0.002241   0.000851
    14  H    0.007349  -0.000003   0.000065  -0.040074  -0.000284   0.000027
    15  H   -0.015978  -0.000010  -0.000708  -0.043837   0.010610  -0.000085
    16  H   -0.006496   0.000038   0.006618  -0.043173  -0.002034   0.000428
             13         14         15         16
     1  H    0.000014  -0.000001   0.000004   0.000000
     2  C   -0.000133   0.000050   0.000094  -0.000074
     3  C    0.002609  -0.000199  -0.000624   0.000791
     4  H   -0.000122  -0.000016   0.000009   0.000014
     5  H    0.000020   0.000000   0.000004   0.000000
     6  H    0.000533  -0.000058   0.000121  -0.000065
     7  Si  -0.051220   0.007349  -0.015978  -0.006496
     8  H   -0.000162  -0.000003  -0.000010   0.000038
     9  O   -0.007120   0.000065  -0.000708   0.006618
    10  O    0.258689  -0.040074  -0.043837  -0.043173
    11  H    0.002241  -0.000284   0.010610  -0.002034
    12  H    0.000851   0.000027  -0.000085   0.000428
    13  C    4.770707   0.401787   0.419027   0.412127
    14  H    0.401787   0.567009  -0.030963  -0.033234
    15  H    0.419027  -0.030963   0.592261  -0.047870
    16  H    0.412127  -0.033234  -0.047870   0.593005
 Mulliken atomic charges:
              1
     1  H    0.125029
     2  C   -0.386642
     3  C   -0.320205
     4  H    0.128745
     5  H    0.127294
     6  H    0.124916
     7  Si   0.550973
     8  H    0.112998
     9  O   -0.529495
    10  O   -0.340777
    11  H   -0.068141
    12  H    0.318737
    13  C   -0.209849
    14  H    0.128548
    15  H    0.117944
    16  H    0.119926
 Sum of Mulliken atomic charges =   0.00000
 Mulliken charges with hydrogens summed into heavy atoms:
              1
     2  C   -0.005574
     3  C   -0.082291
     7  Si   0.482832
     9  O   -0.210758
    10  O   -0.340777
    13  C    0.156568
 Sum of Mulliken charges with hydrogens summed into heavy atoms =   0.00000
 Electronic spatial extent (au):  <R**2>=            920.2466
 Charge=              0.0000 electrons
 Dipole moment (field-independent basis, Debye):
    X=              0.1398    Y=             -0.0237    Z=             -1.1207  Tot=              1.1297
 Quadrupole moment (field-independent basis, Debye-Ang):
   XX=            -41.6649   YY=            -45.9645   ZZ=            -44.9058
   XY=             -1.2330   XZ=             -0.1921   YZ=             -4.2633
 Traceless Quadrupole moment (field-independent basis, Debye-Ang):
   XX=              2.5135   YY=             -1.7861   ZZ=             -0.7274
   XY=             -1.2330   XZ=             -0.1921   YZ=             -4.2633
 Octapole moment (field-independent basis, Debye-Ang**2):
  XXX=             17.3718  YYY=              3.6582  ZZZ=             -6.3558  XYY=              3.5802
  XXY=             -1.8711  XXZ=             -1.9331  XZZ=              3.3565  YZZ=              4.7423
  YYZ=             -9.9739  XYZ=             -3.6506
 Hexadecapole moment (field-independent basis, Debye-Ang**3):
 XXXX=           -796.8404 YYYY=           -292.4591 ZZZZ=           -126.3641 XXXY=            -12.7054
 XXXZ=             -0.0212 YYYX=             -2.9390 YYYZ=            -21.2189 ZZZX=             -1.7072
 ZZZY=             -2.9712 XXYY=           -180.4781 XXZZ=           -156.5269 YYZZ=            -62.7504
 XXYZ=              0.4600 YYXZ=             -7.4104 ZZXY=              0.8058
 N-N= 3.262673112228D+02 E-N=-1.976565581752D+03  KE= 5.582519698173D+02
 1\1\GINC-TARSUS2\SP\RPBE1PBE\def2TZVP\C3H10O2Si1\RENATO\29-Jun-2018\0\
 \#SP PBE1PBE/Def2TZVP geom=connectivity\\Structure: 50\\0,1\H,0,0.,0.,
 0.\C,0,1.093,0.,0.\C,0,1.655,1.421,0.\H,0,1.41,-0.56,-0.885\H,0,1.424,
 -0.557,0.88\H,0,1.308,1.969,-0.883\Si,0,3.513,1.515,0.035\H,0,1.282,1.
 975,0.868\O,0,4.078,2.637,1.104\O,0,3.972,1.854,-1.505\H,0,4.154,0.255
 ,0.49\H,0,3.746,3.532,1.023\C,0,5.314,1.931,-1.923\H,0,5.33,2.097,-3.0
 02\H,0,5.855,1.003,-1.706\H,0,5.84,2.758,-1.434\\Version=EM64L-G09RevC
 .01\State=1-A\HF=-560.059621\RMSD=7.555e-09\Dipole=-0.167371,0.3616374
 ,-0.1968158\Quadrupole=0.5788263,1.8134168,-2.392243,-0.1044323,-2.917
 9324,0.6950028\PG=C01 [X(C3H10O2Si1)]\\@


 EVERYTHING'S GOT A MORAL, IF ONLY YOU CAN FIND IT.

                                    -- LEWIS CARROL, ALICE IN WONDERLAND
 Job cpu time:  0 days  0 hours  8 minutes 56.3 seconds.
 File lengths (MBytes):  RWF=     40 Int=      0 D2E=      0 Chk=      3 Scr=      1
 Normal termination of Gaussian 09 at Fri Jun 29 13:30:20 2018.
