 Entering Gaussian System, Link 0=g09
 Initial command:
 /usr/local/gaussian09/g09/l1.exe /scratch/renato/Gau-29973.inp -scrdir=/scratch/renato/
 Entering Link 1 = /usr/local/gaussian09/g09/l1.exe PID=     29975.
  
 Copyright (c) 1988,1990,1992,1993,1995,1998,2003,2009,2011,
            Gaussian, Inc.  All Rights Reserved.
  
 This is part of the Gaussian(R) 09 program.  It is based on
 the Gaussian(R) 03 system (copyright 2003, Gaussian, Inc.),
 the Gaussian(R) 98 system (copyright 1998, Gaussian, Inc.),
 the Gaussian(R) 94 system (copyright 1995, Gaussian, Inc.),
 the Gaussian 92(TM) system (copyright 1992, Gaussian, Inc.),
 the Gaussian 90(TM) system (copyright 1990, Gaussian, Inc.),
 the Gaussian 88(TM) system (copyright 1988, Gaussian, Inc.),
 the Gaussian 86(TM) system (copyright 1986, Carnegie Mellon
 University), and the Gaussian 82(TM) system (copyright 1983,
 Carnegie Mellon University). Gaussian is a federally registered
 trademark of Gaussian, Inc.
  
 This software contains proprietary and confidential information,
 including trade secrets, belonging to Gaussian, Inc.
  
 This software is provided under written license and may be
 used, copied, transmitted, or stored only in accord with that
 written license.
  
 The following legend is applicable only to US Government
 contracts under FAR:
  
                    RESTRICTED RIGHTS LEGEND
  
 Use, reproduction and disclosure by the US Government is
 subject to restrictions as set forth in subparagraphs (a)
 and (c) of the Commercial Computer Software - Restricted
 Rights clause in FAR 52.227-19.
  
 Gaussian, Inc.
 340 Quinnipiac St., Bldg. 40, Wallingford CT 06492
  
  
 ---------------------------------------------------------------
 Warning -- This program may not be used in any manner that
 competes with the business of Gaussian, Inc. or will provide
 assistance to any competitor of Gaussian, Inc.  The licensee
 of this program is prohibited from giving any competitor of
 Gaussian, Inc. access to this program.  By using this program,
 the user acknowledges that Gaussian, Inc. is engaged in the
 business of creating and licensing software in the field of
 computational chemistry and represents and warrants to the
 licensee that it is not a competitor of Gaussian, Inc. and that
 it will not use this program in any manner prohibited above.
 ---------------------------------------------------------------
  

 Cite this work as:
 Gaussian 09, Revision C.01,
 M. J. Frisch, G. W. Trucks, H. B. Schlegel, G. E. Scuseria, 
 M. A. Robb, J. R. Cheeseman, G. Scalmani, V. Barone, B. Mennucci, 
 G. A. Petersson, H. Nakatsuji, M. Caricato, X. Li, H. P. Hratchian, 
 A. F. Izmaylov, J. Bloino, G. Zheng, J. L. Sonnenberg, M. Hada, 
 M. Ehara, K. Toyota, R. Fukuda, J. Hasegawa, M. Ishida, T. Nakajima, 
 Y. Honda, O. Kitao, H. Nakai, T. Vreven, J. A. Montgomery, Jr., 
 J. E. Peralta, F. Ogliaro, M. Bearpark, J. J. Heyd, E. Brothers, 
 K. N. Kudin, V. N. Staroverov, T. Keith, R. Kobayashi, J. Normand, 
 K. Raghavachari, A. Rendell, J. C. Burant, S. S. Iyengar, J. Tomasi, 
 M. Cossi, N. Rega, J. M. Millam, M. Klene, J. E. Knox, J. B. Cross, 
 V. Bakken, C. Adamo, J. Jaramillo, R. Gomperts, R. E. Stratmann, 
 O. Yazyev, A. J. Austin, R. Cammi, C. Pomelli, J. W. Ochterski, 
 R. L. Martin, K. Morokuma, V. G. Zakrzewski, G. A. Voth, 
 P. Salvador, J. J. Dannenberg, S. Dapprich, A. D. Daniels, 
 O. Farkas, J. B. Foresman, J. V. Ortiz, J. Cioslowski, 
 and D. J. Fox, Gaussian, Inc., Wallingford CT, 2010.
 
 ******************************************
 Gaussian 09:  EM64L-G09RevC.01 23-Sep-2011
                29-Jun-2018 
 ******************************************
 %nproc=2
 Will use up to    2 processors via shared memory.
 %mem=256MB
 %RWF=d23.rwf
 %chk=d2355
 %NoSave
 --------------------------------------
 #SP PBE1PBE/Def2TZVP geom=connectivity
 --------------------------------------
 1/38=1,57=2/1;
 2/12=2,17=6,18=5,40=1/2;
 3/5=44,7=101,11=2,16=1,25=1,30=1,74=-13/1,2,3;
 4//1;
 5/5=2,38=5/2;
 6/7=2,8=2,9=2,10=2,28=1/1;
 99/5=1,9=1/99;
 -------------
 Structure: 55
 -------------
 Charge =  0 Multiplicity = 1
 Symbolic Z-Matrix:
 H                     0.        0.        0. 
 C                     1.093     0.        0. 
 C                     1.655     1.421     0. 
 H                     1.41     -0.56     -0.885 
 H                     1.424    -0.557     0.88 
 H                     1.308     1.969    -0.883 
 Si                    3.513     1.515     0.035 
 H                     1.282     1.975     0.868 
 O                     4.085     2.437     1.277 
 O                     3.957     2.118    -1.427 
 H                     4.161     0.197     0.259 
 H                     3.75      3.331     1.356 
 C                     5.295     2.271    -1.836 
 H                     5.301     2.622    -2.87 
 H                     5.841     1.322    -1.789 
 H                     5.823     3.003    -1.216 
 
                          Input orientation:                          
 ---------------------------------------------------------------------
 Center     Atomic      Atomic             Coordinates (Angstroms)
 Number     Number       Type             X           Y           Z
 ---------------------------------------------------------------------
      1          1           0        0.000000    0.000000    0.000000
      2          6           0        1.093000    0.000000    0.000000
      3          6           0        1.655000    1.421000    0.000000
      4          1           0        1.410000   -0.560000   -0.885000
      5          1           0        1.424000   -0.557000    0.880000
      6          1           0        1.308000    1.969000   -0.883000
      7         14           0        3.513000    1.515000    0.035000
      8          1           0        1.282000    1.975000    0.868000
      9          8           0        4.085000    2.437000    1.277000
     10          8           0        3.957000    2.118000   -1.427000
     11          1           0        4.161000    0.197000    0.259000
     12          1           0        3.750000    3.331000    1.356000
     13          6           0        5.295000    2.271000   -1.836000
     14          1           0        5.301000    2.622000   -2.870000
     15          1           0        5.841000    1.322000   -1.789000
     16          1           0        5.823000    3.003000   -1.216000
 ---------------------------------------------------------------------
                    Distance matrix (angstroms):
                    1          2          3          4          5
     1  H    0.000000
     2  C    1.093000   0.000000
     3  C    2.181345   1.528098   0.000000
     4  H    1.756395   1.094218   2.183486   0.000000
     5  H    1.764207   1.092799   2.177210   1.765058   0.000000
     6  H    2.523393   2.168611   1.095629   2.531057   3.082580
     7  Si   3.825914   2.855320   1.860706   3.094291   3.061230
     8  H    2.509497   2.165588   1.095203   3.084740   2.536007
     9  O    4.925132   4.064697   2.927095   4.562004   4.025241
    10  O    4.709576   3.837284   2.796666   3.735326   4.346719
    11  H    4.173705   3.085209   2.800945   3.074050   2.906084
    12  H    5.195844   4.471459   3.142588   5.063355   4.555590
    13  C    6.046930   5.117142   4.164492   4.900223   5.509889
    14  H    6.573613   5.728791   4.792976   5.404186   6.260964
    15  H    6.250239   5.243254   4.553341   4.898255   5.492185
    16  H    6.663632   5.733198   4.620996   5.681470   6.034734
                    6          7          8          9         10
     6  H    0.000000
     7  Si   2.431227   0.000000
     8  H    1.751203   2.425459   0.000000
     9  O    3.549134   1.649191   2.870110   0.000000
    10  O    2.708383   1.642617   3.527478   2.725759   0.000000
    11  H    3.547359   1.485666   3.438140   2.461646   2.564070
    12  H    3.582112   2.258111   2.857955   0.957968   3.042911
    13  C    4.110424   2.692155   4.848031   3.344013   1.407457
    14  H    4.507619   3.586282   5.526628   4.325562   2.035338
    15  H    4.667712   2.963749   5.317005   3.705012   2.077045
    16  H    4.643842   3.019146   5.101031   3.091286   2.075982
                   11         12         13         14         15
    11  H    0.000000
    12  H    3.345786   0.000000
    13  C    3.158553   3.701282   0.000000
    14  H    4.119571   4.557122   1.091967   0.000000
    15  H    2.877904   4.277778   1.095868   1.774869   0.000000
    16  H    3.579316   3.319653   1.094992   1.775771   1.776067
                   16
    16  H    0.000000
 Stoichiometry    C3H10O2Si
 Framework group  C1[X(C3H10O2Si)]
 Deg. of freedom    42
 Full point group                 C1      NOp   1
 Largest Abelian subgroup         C1      NOp   1
 Largest concise Abelian subgroup C1      NOp   1
                         Standard orientation:                         
 ---------------------------------------------------------------------
 Center     Atomic      Atomic             Coordinates (Angstroms)
 Number     Number       Type             X           Y           Z
 ---------------------------------------------------------------------
      1          1           0       -3.577049   -0.870195   -0.259799
      2          6           0       -2.649197   -0.688391    0.288550
      3          6           0       -1.571836   -0.087663   -0.613396
      4          1           0       -2.335521   -1.649045    0.708150
      5          1           0       -2.883052   -0.023277    1.123502
      6          1           0       -1.354413   -0.761409   -1.449575
      7         14           0        0.034018    0.287114    0.248578
      8          1           0       -1.930185    0.845909   -1.060049
      9          8           0        0.514531    1.853012    0.056481
     10          8           0        1.130088   -0.767638   -0.371356
     11          1           0       -0.043816    0.130317    1.723896
     12          1           0        0.582707    2.189033   -0.838027
     13          6           0        2.460480   -0.866414    0.077236
     14          1           0        2.942315   -1.690563   -0.452865
     15          1           0        2.508162   -1.071153    1.152751
     16          1           0        3.020968    0.052606   -0.123418
 ---------------------------------------------------------------------
 Rotational constants (GHZ):      4.3950963      1.7552510      1.3911913
 Standard basis: def2TZVP (5D, 7F)
 There are   252 symmetry adapted basis functions of A   symmetry.
 Integral buffers will be    131072 words long.
 Raffenetti 2 integral format.
 Two-electron integral symmetry is turned on.
   252 basis functions,   404 primitive gaussians,   282 cartesian basis functions
    29 alpha electrons       29 beta electrons
       nuclear repulsion energy       326.0796061298 Hartrees.
 NAtoms=   16 NActive=   16 NUniq=   16 SFac= 1.00D+00 NAtFMM=   60 NAOKFM=F Big=F
 One-electron integrals computed using PRISM.
   1 Symmetry operations used in ECPInt.
 ECPInt:  NShTT=    5886 NPrTT=   17754 LenC2=    5742 LenP2D=   13756.
 LDataN:  DoStor=T MaxTD1= 6 Len=  172
 NBasis=   252 RedAO= T  NBF=   252
 NBsUse=   252 1.00D-06 NBFU=   252
 Harris functional with IExCor= 1009 diagonalized for initial guess.
 ExpMin= 7.01D-02 ExpMax= 4.48D+04 ExpMxC= 1.53D+03 IAcc=2 IRadAn=         4 AccDes= 0.00D+00
 HarFok:  IExCor= 1009 AccDes= 0.00D+00 IRadAn=         4 IDoV= 1
 ScaDFX=  1.000000  1.000000  1.000000  1.000000
 FoFCou: FMM=F IPFlag=           0 FMFlag=      100000 FMFlg1=           0
         NFxFlg=           0 DoJE=T BraDBF=F KetDBF=T FulRan=T
         Omega=  0.000000  0.000000  1.000000  0.000000  0.000000 ICntrl=     500 IOpCl=  0
         NMat0=    1 NMatS0=    1 NMatT0=    0 NMatD0=    1 NMtDS0=    0 NMtDT0=    0
         I1Cent=           4 NGrid=           0.
 Petite list used in FoFCou.
 Initial guess orbital symmetries:
       Occupied  (A) (A) (A) (A) (A) (A) (A) (A) (A) (A) (A) (A)
                 (A) (A) (A) (A) (A) (A) (A) (A) (A) (A) (A) (A)
                 (A) (A) (A) (A) (A)
       Virtual   (A) (A) (A) (A) (A) (A) (A) (A) (A) (A) (A) (A)
                 (A) (A) (A) (A) (A) (A) (A) (A) (A) (A) (A) (A)
                 (A) (A) (A) (A) (A) (A) (A) (A) (A) (A) (A) (A)
                 (A) (A) (A) (A) (A) (A) (A) (A) (A) (A) (A) (A)
                 (A) (A) (A) (A) (A) (A) (A) (A) (A) (A) (A) (A)
                 (A) (A) (A) (A) (A) (A) (A) (A) (A) (A) (A) (A)
                 (A) (A) (A) (A) (A) (A) (A) (A) (A) (A) (A) (A)
                 (A) (A) (A) (A) (A) (A) (A) (A) (A) (A) (A) (A)
                 (A) (A) (A) (A) (A) (A) (A) (A) (A) (A) (A) (A)
                 (A) (A) (A) (A) (A) (A) (A) (A) (A) (A) (A) (A)
                 (A) (A) (A) (A) (A) (A) (A) (A) (A) (A) (A) (A)
                 (A) (A) (A) (A) (A) (A) (A) (A) (A) (A) (A) (A)
                 (A) (A) (A) (A) (A) (A) (A) (A) (A) (A) (A) (A)
                 (A) (A) (A) (A) (A) (A) (A) (A) (A) (A) (A) (A)
                 (A) (A) (A) (A) (A) (A) (A) (A) (A) (A) (A) (A)
                 (A) (A) (A) (A) (A) (A) (A) (A) (A) (A) (A) (A)
                 (A) (A) (A) (A) (A) (A) (A) (A) (A) (A) (A) (A)
                 (A) (A) (A) (A) (A) (A) (A) (A) (A) (A) (A) (A)
                 (A) (A) (A) (A) (A) (A) (A)
 The electronic state of the initial guess is 1-A.
 Requested convergence on RMS density matrix=1.00D-08 within 128 cycles.
 Requested convergence on MAX density matrix=1.00D-06.
 Requested convergence on             energy=1.00D-06.
 No special actions if energy rises.
 Integral accuracy reduced to 1.0D-05 until final iterations.
 Initial convergence to 1.0D-05 achieved.  Increase integral accuracy.
 SCF Done:  E(RPBE1PBE) =  -560.059257716     A.U. after   12 cycles
             Convg  =    0.7262D-08             -V/T =  2.0032

 **********************************************************************

            Population analysis using the SCF density.

 **********************************************************************

 Orbital symmetries:
       Occupied  (A) (A) (A) (A) (A) (A) (A) (A) (A) (A) (A) (A)
                 (A) (A) (A) (A) (A) (A) (A) (A) (A) (A) (A) (A)
                 (A) (A) (A) (A) (A)
       Virtual   (A) (A) (A) (A) (A) (A) (A) (A) (A) (A) (A) (A)
                 (A) (A) (A) (A) (A) (A) (A) (A) (A) (A) (A) (A)
                 (A) (A) (A) (A) (A) (A) (A) (A) (A) (A) (A) (A)
                 (A) (A) (A) (A) (A) (A) (A) (A) (A) (A) (A) (A)
                 (A) (A) (A) (A) (A) (A) (A) (A) (A) (A) (A) (A)
                 (A) (A) (A) (A) (A) (A) (A) (A) (A) (A) (A) (A)
                 (A) (A) (A) (A) (A) (A) (A) (A) (A) (A) (A) (A)
                 (A) (A) (A) (A) (A) (A) (A) (A) (A) (A) (A) (A)
                 (A) (A) (A) (A) (A) (A) (A) (A) (A) (A) (A) (A)
                 (A) (A) (A) (A) (A) (A) (A) (A) (A) (A) (A) (A)
                 (A) (A) (A) (A) (A) (A) (A) (A) (A) (A) (A) (A)
                 (A) (A) (A) (A) (A) (A) (A) (A) (A) (A) (A) (A)
                 (A) (A) (A) (A) (A) (A) (A) (A) (A) (A) (A) (A)
                 (A) (A) (A) (A) (A) (A) (A) (A) (A) (A) (A) (A)
                 (A) (A) (A) (A) (A) (A) (A) (A) (A) (A) (A) (A)
                 (A) (A) (A) (A) (A) (A) (A) (A) (A) (A) (A) (A)
                 (A) (A) (A) (A) (A) (A) (A) (A) (A) (A) (A) (A)
                 (A) (A) (A) (A) (A) (A) (A) (A) (A) (A) (A) (A)
                 (A) (A) (A) (A) (A) (A) (A)
 The electronic state is 1-A.
 Alpha  occ. eigenvalues --  -66.25394 -19.20207 -19.20045 -10.26413 -10.21487
 Alpha  occ. eigenvalues --  -10.20701  -5.33062  -3.66586  -3.66470  -3.66336
 Alpha  occ. eigenvalues --   -1.04464  -1.02285  -0.78037  -0.70562  -0.63714
 Alpha  occ. eigenvalues --   -0.56854  -0.51082  -0.46816  -0.46473  -0.45687
 Alpha  occ. eigenvalues --   -0.44289  -0.40417  -0.38494  -0.37703  -0.36365
 Alpha  occ. eigenvalues --   -0.35260  -0.31816  -0.30496  -0.29702
 Alpha virt. eigenvalues --    0.03177   0.04612   0.05486   0.07220   0.09817
 Alpha virt. eigenvalues --    0.10302   0.11380   0.11495   0.12474   0.13060
 Alpha virt. eigenvalues --    0.13618   0.14430   0.16282   0.17474   0.18933
 Alpha virt. eigenvalues --    0.21757   0.22265   0.24264   0.24917   0.25394
 Alpha virt. eigenvalues --    0.27738   0.28042   0.28649   0.30397   0.30786
 Alpha virt. eigenvalues --    0.36228   0.37704   0.38578   0.39696   0.40805
 Alpha virt. eigenvalues --    0.41559   0.42440   0.43695   0.44194   0.45032
 Alpha virt. eigenvalues --    0.45864   0.46820   0.48427   0.49001   0.49684
 Alpha virt. eigenvalues --    0.52353   0.53482   0.54805   0.56038   0.58825
 Alpha virt. eigenvalues --    0.60123   0.60740   0.65784   0.67316   0.68620
 Alpha virt. eigenvalues --    0.71433   0.73630   0.78136   0.78825   0.80287
 Alpha virt. eigenvalues --    0.83280   0.85943   0.87315   0.88164   0.91118
 Alpha virt. eigenvalues --    0.93658   0.95704   0.98047   0.99479   1.00219
 Alpha virt. eigenvalues --    1.03619   1.06113   1.07647   1.08969   1.09653
 Alpha virt. eigenvalues --    1.11898   1.14040   1.16321   1.21144   1.21777
 Alpha virt. eigenvalues --    1.25773   1.27900   1.31463   1.37722   1.39950
 Alpha virt. eigenvalues --    1.42553   1.46939   1.48898   1.49817   1.51139
 Alpha virt. eigenvalues --    1.52711   1.54476   1.55374   1.57233   1.57566
 Alpha virt. eigenvalues --    1.58528   1.61048   1.62844   1.65095   1.66760
 Alpha virt. eigenvalues --    1.68769   1.71288   1.76559   1.77024   1.79105
 Alpha virt. eigenvalues --    1.82269   1.83460   1.86066   1.87812   1.91432
 Alpha virt. eigenvalues --    1.92530   1.96407   1.97189   1.99996   2.03455
 Alpha virt. eigenvalues --    2.05810   2.07813   2.10330   2.13212   2.14916
 Alpha virt. eigenvalues --    2.17835   2.21206   2.24398   2.25745   2.29876
 Alpha virt. eigenvalues --    2.31842   2.32878   2.34064   2.35096   2.36220
 Alpha virt. eigenvalues --    2.37115   2.40661   2.43139   2.46312   2.47843
 Alpha virt. eigenvalues --    2.51916   2.53080   2.56245   2.56933   2.58543
 Alpha virt. eigenvalues --    2.59584   2.62343   2.65402   2.67210   2.69255
 Alpha virt. eigenvalues --    2.71562   2.74808   2.77593   2.83660   2.85295
 Alpha virt. eigenvalues --    2.86132   2.94194   2.95181   2.98772   3.02139
 Alpha virt. eigenvalues --    3.04227   3.09868   3.09977   3.12731   3.14829
 Alpha virt. eigenvalues --    3.21020   3.21926   3.23998   3.29665   3.31480
 Alpha virt. eigenvalues --    3.33034   3.33723   3.36089   3.37126   3.44171
 Alpha virt. eigenvalues --    3.45652   3.48009   3.49205   3.53182   3.54448
 Alpha virt. eigenvalues --    3.58583   3.62642   3.63326   3.64018   3.77126
 Alpha virt. eigenvalues --    3.81679   3.87385   3.92353   3.95408   4.01824
 Alpha virt. eigenvalues --    4.19076   4.24310   4.25192   4.34866   4.36952
 Alpha virt. eigenvalues --    4.41547   4.47096   4.53868   4.55233   4.79411
 Alpha virt. eigenvalues --    5.15730   5.16787   5.17849   5.18328   5.28200
 Alpha virt. eigenvalues --    5.29150   5.38633   5.41936   5.45403   5.49882
 Alpha virt. eigenvalues --    5.79983   5.86807   6.02649   6.22898   6.39293
 Alpha virt. eigenvalues --    6.41851   6.53320   6.58846   6.59999   6.66202
 Alpha virt. eigenvalues --    6.67607   6.79337   6.82159   6.98518   7.05861
 Alpha virt. eigenvalues --    7.15750   7.22662  11.88537  22.36467  22.40778
 Alpha virt. eigenvalues --   22.45558  43.61066  43.92316
          Condensed to atoms (all electrons):
              1          2          3          4          5          6
     1  H    0.564335   0.407731  -0.031712  -0.027631  -0.028101  -0.006826
     2  C    0.407731   4.901830   0.309334   0.412693   0.410643  -0.026297
     3  C   -0.031712   0.309334   5.096505  -0.039927  -0.040030   0.374086
     4  H   -0.027631   0.412693  -0.039927   0.554711  -0.024820  -0.004872
     5  H   -0.028101   0.410643  -0.040030  -0.024820   0.555630   0.007619
     6  H   -0.006826  -0.026297   0.374086  -0.004872   0.007619   0.562408
     7  Si   0.005600  -0.009413   0.402057  -0.007335  -0.006233  -0.015665
     8  H   -0.008140  -0.026192   0.373397   0.008253  -0.004265  -0.026370
     9  O   -0.000188   0.001153  -0.045200  -0.000007   0.000453   0.001040
    10  O   -0.000136   0.000439  -0.035509   0.000575   0.000050   0.003953
    11  H    0.000082   0.004527  -0.045774   0.000386   0.001660   0.002947
    12  H    0.000010  -0.000145  -0.003090  -0.000001   0.000014   0.000118
    13  C    0.000013  -0.000168   0.002866  -0.000087   0.000014   0.000520
    14  H   -0.000001   0.000029  -0.000125  -0.000006   0.000000  -0.000091
    15  H    0.000003   0.000109  -0.000679   0.000015   0.000000   0.000112
    16  H    0.000000  -0.000061   0.000692   0.000006   0.000000  -0.000032
              7          8          9         10         11         12
     1  H    0.005600  -0.008140  -0.000188  -0.000136   0.000082   0.000010
     2  C   -0.009413  -0.026192   0.001153   0.000439   0.004527  -0.000145
     3  C    0.402057   0.373397  -0.045200  -0.035509  -0.045774  -0.003090
     4  H   -0.007335   0.008253  -0.000007   0.000575   0.000386  -0.000001
     5  H   -0.006233  -0.004265   0.000453   0.000050   0.001660   0.000014
     6  H   -0.015665  -0.026370   0.001040   0.003953   0.002947   0.000118
     7  Si  11.865560  -0.026672   0.478885   0.466027   0.390323  -0.026756
     8  H   -0.026672   0.595349   0.001404   0.001625   0.002017   0.001440
     9  O    0.478885   0.001404   7.846793  -0.034907  -0.017847   0.298897
    10  O    0.466027   0.001625  -0.034907   7.837976  -0.027794  -0.001345
    11  H    0.390323   0.002017  -0.017847  -0.027794   0.743517   0.003986
    12  H   -0.026756   0.001440   0.298897  -0.001345   0.003986   0.407101
    13  C   -0.051396  -0.000166  -0.007397   0.258158   0.001706   0.000820
    14  H    0.007162  -0.000002   0.000061  -0.039966  -0.000279   0.000027
    15  H   -0.014921  -0.000013  -0.000757  -0.043837   0.010520  -0.000088
    16  H   -0.006884   0.000046   0.006715  -0.043332  -0.002015   0.000445
             13         14         15         16
     1  H    0.000013  -0.000001   0.000003   0.000000
     2  C   -0.000168   0.000029   0.000109  -0.000061
     3  C    0.002866  -0.000125  -0.000679   0.000692
     4  H   -0.000087  -0.000006   0.000015   0.000006
     5  H    0.000014   0.000000   0.000000   0.000000
     6  H    0.000520  -0.000091   0.000112  -0.000032
     7  Si  -0.051396   0.007162  -0.014921  -0.006884
     8  H   -0.000166  -0.000002  -0.000013   0.000046
     9  O   -0.007397   0.000061  -0.000757   0.006715
    10  O    0.258158  -0.039966  -0.043837  -0.043332
    11  H    0.001706  -0.000279   0.010520  -0.002015
    12  H    0.000820   0.000027  -0.000088   0.000445
    13  C    4.770708   0.401842   0.418180   0.412793
    14  H    0.401842   0.567222  -0.031121  -0.033198
    15  H    0.418180  -0.031121   0.592416  -0.047800
    16  H    0.412793  -0.033198  -0.047800   0.592631
 Mulliken atomic charges:
              1
     1  H    0.124961
     2  C   -0.386210
     3  C   -0.316891
     4  H    0.128047
     5  H    0.127366
     6  H    0.127349
     7  Si   0.549662
     8  H    0.108290
     9  O   -0.529098
    10  O   -0.341976
    11  H   -0.067963
    12  H    0.318567
    13  C   -0.208405
    14  H    0.128447
    15  H    0.117860
    16  H    0.119994
 Sum of Mulliken atomic charges =   0.00000
 Mulliken charges with hydrogens summed into heavy atoms:
              1
     2  C   -0.005836
     3  C   -0.081252
     7  Si   0.481699
     9  O   -0.210531
    10  O   -0.341976
    13  C    0.157896
 Sum of Mulliken charges with hydrogens summed into heavy atoms =   0.00000
 Electronic spatial extent (au):  <R**2>=            925.3457
 Charge=              0.0000 electrons
 Dipole moment (field-independent basis, Debye):
    X=              0.1520    Y=             -0.0195    Z=             -1.1147  Tot=              1.1251
 Quadrupole moment (field-independent basis, Debye-Ang):
   XX=            -41.6023   YY=            -46.0186   ZZ=            -44.9030
   XY=             -0.9506   XZ=              0.0590   YZ=             -4.2873
 Traceless Quadrupole moment (field-independent basis, Debye-Ang):
   XX=              2.5724   YY=             -1.8440   ZZ=             -0.7284
   XY=             -0.9506   XZ=              0.0590   YZ=             -4.2873
 Octapole moment (field-independent basis, Debye-Ang**2):
  XXX=             18.1544  YYY=              3.7469  ZZZ=             -6.3597  XYY=              3.2279
  XXY=             -1.6882  XXZ=             -1.6778  XZZ=              3.3486  YZZ=              4.8582
  YYZ=             -9.8846  XYZ=             -3.3398
 Hexadecapole moment (field-independent basis, Debye-Ang**3):
 XXXX=           -814.9921 YYYY=           -278.9676 ZZZZ=           -129.5165 XXXY=            -13.0135
 XXXZ=              0.8811 YYYX=             -2.2146 YYYZ=            -21.4433 ZZZX=             -1.1072
 ZZZY=             -3.4325 XXYY=           -181.2269 XXZZ=           -160.5352 YYZZ=            -59.7280
 XXYZ=              0.6970 YYXZ=             -6.7707 ZZXY=              0.2763
 N-N= 3.260796061298D+02 E-N=-1.976189518285D+03  KE= 5.582542176617D+02
 1\1\GINC-TARSUS2\SP\RPBE1PBE\def2TZVP\C3H10O2Si1\RENATO\29-Jun-2018\0\
 \#SP PBE1PBE/Def2TZVP geom=connectivity\\Structure: 55\\0,1\H,0,0.,0.,
 0.\C,0,1.093,0.,0.\C,0,1.655,1.421,0.\H,0,1.41,-0.56,-0.885\H,0,1.424,
 -0.557,0.88\H,0,1.308,1.969,-0.883\Si,0,3.513,1.515,0.035\H,0,1.282,1.
 975,0.868\O,0,4.085,2.437,1.277\O,0,3.957,2.118,-1.427\H,0,4.161,0.197
 ,0.259\H,0,3.75,3.331,1.356\C,0,5.295,2.271,-1.836\H,0,5.301,2.622,-2.
 87\H,0,5.841,1.322,-1.789\H,0,5.823,3.003,-1.216\\Version=EM64L-G09Rev
 C.01\State=1-A\HF=-560.0592577\RMSD=7.262e-09\Dipole=-0.1705082,0.3878
 985,-0.1281248\Quadrupole=0.5097691,1.4426024,-1.9523715,0.4161168,-2.
 8943728,1.3963861\PG=C01 [X(C3H10O2Si1)]\\@


 TIME GOES, YOU SAY?  AH NO!
 ALAS, TIME STAYS, WE GO.
    -- A. DOBSON (1840-1921)
 Job cpu time:  0 days  0 hours  9 minutes  3.3 seconds.
 File lengths (MBytes):  RWF=     40 Int=      0 D2E=      0 Chk=      3 Scr=      1
 Normal termination of Gaussian 09 at Fri Jun 29 13:51:21 2018.
