 Entering Gaussian System, Link 0=g09
 Initial command:
 /usr/local/gaussian09/g09/l1.exe /scratch/renato/Gau-30741.inp -scrdir=/scratch/renato/
 Entering Link 1 = /usr/local/gaussian09/g09/l1.exe PID=     30743.
  
 Copyright (c) 1988,1990,1992,1993,1995,1998,2003,2009,2011,
            Gaussian, Inc.  All Rights Reserved.
  
 This is part of the Gaussian(R) 09 program.  It is based on
 the Gaussian(R) 03 system (copyright 2003, Gaussian, Inc.),
 the Gaussian(R) 98 system (copyright 1998, Gaussian, Inc.),
 the Gaussian(R) 94 system (copyright 1995, Gaussian, Inc.),
 the Gaussian 92(TM) system (copyright 1992, Gaussian, Inc.),
 the Gaussian 90(TM) system (copyright 1990, Gaussian, Inc.),
 the Gaussian 88(TM) system (copyright 1988, Gaussian, Inc.),
 the Gaussian 86(TM) system (copyright 1986, Carnegie Mellon
 University), and the Gaussian 82(TM) system (copyright 1983,
 Carnegie Mellon University). Gaussian is a federally registered
 trademark of Gaussian, Inc.
  
 This software contains proprietary and confidential information,
 including trade secrets, belonging to Gaussian, Inc.
  
 This software is provided under written license and may be
 used, copied, transmitted, or stored only in accord with that
 written license.
  
 The following legend is applicable only to US Government
 contracts under FAR:
  
                    RESTRICTED RIGHTS LEGEND
  
 Use, reproduction and disclosure by the US Government is
 subject to restrictions as set forth in subparagraphs (a)
 and (c) of the Commercial Computer Software - Restricted
 Rights clause in FAR 52.227-19.
  
 Gaussian, Inc.
 340 Quinnipiac St., Bldg. 40, Wallingford CT 06492
  
  
 ---------------------------------------------------------------
 Warning -- This program may not be used in any manner that
 competes with the business of Gaussian, Inc. or will provide
 assistance to any competitor of Gaussian, Inc.  The licensee
 of this program is prohibited from giving any competitor of
 Gaussian, Inc. access to this program.  By using this program,
 the user acknowledges that Gaussian, Inc. is engaged in the
 business of creating and licensing software in the field of
 computational chemistry and represents and warrants to the
 licensee that it is not a competitor of Gaussian, Inc. and that
 it will not use this program in any manner prohibited above.
 ---------------------------------------------------------------
  

 Cite this work as:
 Gaussian 09, Revision C.01,
 M. J. Frisch, G. W. Trucks, H. B. Schlegel, G. E. Scuseria, 
 M. A. Robb, J. R. Cheeseman, G. Scalmani, V. Barone, B. Mennucci, 
 G. A. Petersson, H. Nakatsuji, M. Caricato, X. Li, H. P. Hratchian, 
 A. F. Izmaylov, J. Bloino, G. Zheng, J. L. Sonnenberg, M. Hada, 
 M. Ehara, K. Toyota, R. Fukuda, J. Hasegawa, M. Ishida, T. Nakajima, 
 Y. Honda, O. Kitao, H. Nakai, T. Vreven, J. A. Montgomery, Jr., 
 J. E. Peralta, F. Ogliaro, M. Bearpark, J. J. Heyd, E. Brothers, 
 K. N. Kudin, V. N. Staroverov, T. Keith, R. Kobayashi, J. Normand, 
 K. Raghavachari, A. Rendell, J. C. Burant, S. S. Iyengar, J. Tomasi, 
 M. Cossi, N. Rega, J. M. Millam, M. Klene, J. E. Knox, J. B. Cross, 
 V. Bakken, C. Adamo, J. Jaramillo, R. Gomperts, R. E. Stratmann, 
 O. Yazyev, A. J. Austin, R. Cammi, C. Pomelli, J. W. Ochterski, 
 R. L. Martin, K. Morokuma, V. G. Zakrzewski, G. A. Voth, 
 P. Salvador, J. J. Dannenberg, S. Dapprich, A. D. Daniels, 
 O. Farkas, J. B. Foresman, J. V. Ortiz, J. Cioslowski, 
 and D. J. Fox, Gaussian, Inc., Wallingford CT, 2010.
 
 ******************************************
 Gaussian 09:  EM64L-G09RevC.01 23-Sep-2011
                29-Jun-2018 
 ******************************************
 %nproc=2
 Will use up to    2 processors via shared memory.
 %mem=256MB
 %RWF=d23.rwf
 %chk=d2367
 %NoSave
 --------------------------------------
 #SP PBE1PBE/Def2TZVP geom=connectivity
 --------------------------------------
 1/38=1,57=2/1;
 2/12=2,17=6,18=5,40=1/2;
 3/5=44,7=101,11=2,16=1,25=1,30=1,74=-13/1,2,3;
 4//1;
 5/5=2,38=5/2;
 6/7=2,8=2,9=2,10=2,28=1/1;
 99/5=1,9=1/99;
 -------------
 Structure: 67
 -------------
 Charge =  0 Multiplicity = 1
 Symbolic Z-Matrix:
 H                     0.        0.        0. 
 C                     1.093     0.        0. 
 C                     1.655     1.421     0. 
 H                     1.41     -0.56     -0.885 
 H                     1.424    -0.557     0.88 
 H                     1.308     1.969    -0.883 
 Si                    3.513     1.515     0.035 
 H                     1.282     1.975     0.868 
 O                     4.11      1.86      1.533 
 O                     3.922     2.665    -1.064 
 H                     4.17      0.228    -0.308 
 H                     3.773     2.641     1.975 
 C                     5.251     2.988    -1.401 
 H                     5.232     3.728    -2.204 
 H                     5.8       2.107    -1.754 
 H                     5.79      3.411    -0.547 
 
                          Input orientation:                          
 ---------------------------------------------------------------------
 Center     Atomic      Atomic             Coordinates (Angstroms)
 Number     Number       Type             X           Y           Z
 ---------------------------------------------------------------------
      1          1           0        0.000000    0.000000    0.000000
      2          6           0        1.093000    0.000000    0.000000
      3          6           0        1.655000    1.421000    0.000000
      4          1           0        1.410000   -0.560000   -0.885000
      5          1           0        1.424000   -0.557000    0.880000
      6          1           0        1.308000    1.969000   -0.883000
      7         14           0        3.513000    1.515000    0.035000
      8          1           0        1.282000    1.975000    0.868000
      9          8           0        4.110000    1.860000    1.533000
     10          8           0        3.922000    2.665000   -1.064000
     11          1           0        4.170000    0.228000   -0.308000
     12          1           0        3.773000    2.641000    1.975000
     13          6           0        5.251000    2.988000   -1.401000
     14          1           0        5.232000    3.728000   -2.204000
     15          1           0        5.800000    2.107000   -1.754000
     16          1           0        5.790000    3.411000   -0.547000
 ---------------------------------------------------------------------
                    Distance matrix (angstroms):
                    1          2          3          4          5
     1  H    0.000000
     2  C    1.093000   0.000000
     3  C    2.181345   1.528098   0.000000
     4  H    1.756395   1.094218   2.183486   0.000000
     5  H    1.764207   1.092799   2.177210   1.765058   0.000000
     6  H    2.523393   2.168611   1.095629   2.531057   3.082580
     7  Si   3.825914   2.855320   1.860706   3.094291   3.061230
     8  H    2.509497   2.165588   1.095203   3.084740   2.536007
     9  O    4.764639   3.861603   2.927428   4.358110   3.671906
    10  O    4.859671   4.029586   2.796233   4.091798   4.516683
    11  H    4.187571   3.100770   2.800596   2.927708   3.093232
    12  H    5.011091   4.249459   3.142443   4.899977   4.116313
    13  C    6.201931   5.308475   4.165274   5.254316   5.693498
    14  H    6.791865   5.990569   4.793203   5.893589   6.509466
    15  H    6.415291   5.447184   4.552816   5.209621   5.760575
    16  H    6.742272   5.830604   4.621421   5.921781   6.069869
                    6          7          8          9         10
     6  H    0.000000
     7  Si   2.431227   0.000000
     8  H    1.751203   2.425459   0.000000
     9  O    3.701370   1.649072   2.907410   0.000000
    10  O    2.711120   1.642432   3.343400   2.725395   0.000000
    11  H    3.398934   1.485149   3.574287   2.460956   2.563593
    12  H    3.833533   2.258113   2.806080   0.958590   3.042745
    13  C    4.105354   2.693041   4.682680   3.344043   1.408595
    14  H    4.498544   3.586844   5.302140   4.325908   2.036092
    15  H    4.577745   2.963335   5.225383   3.704251   2.077101
    16  H    4.720231   3.019647   4.938257   3.091019   2.076831
                   11         12         13         14         15
    11  H    0.000000
    12  H    3.345485   0.000000
    13  C    3.159242   3.701658   0.000000
    14  H    4.119789   4.557882   1.092140   0.000000
    15  H    2.877231   4.277771   1.096436   1.775603   0.000000
    16  H    3.579527   3.319891   1.094882   1.776936   1.776898
                   16
    16  H    0.000000
 Stoichiometry    C3H10O2Si
 Framework group  C1[X(C3H10O2Si)]
 Deg. of freedom    42
 Full point group                 C1      NOp   1
 Largest Abelian subgroup         C1      NOp   1
 Largest concise Abelian subgroup C1      NOp   1
                         Standard orientation:                         
 ---------------------------------------------------------------------
 Center     Atomic      Atomic             Coordinates (Angstroms)
 Number     Number       Type             X           Y           Z
 ---------------------------------------------------------------------
      1          1           0       -3.616439   -0.834823   -0.237378
      2          6           0       -2.730201   -0.504162    0.310248
      3          6           0       -1.516784   -0.375285   -0.609587
      4          1           0       -2.558256   -1.235188    1.106080
      5          1           0       -2.971146    0.450478    0.784397
      6          1           0       -1.292887   -1.337363   -1.083589
      7         14           0        0.031420    0.217432    0.235385
      8          1           0       -1.733234    0.322778   -1.425263
      9          8           0        0.338030    1.815197   -0.034010
     10          8           0        1.241428   -0.739150   -0.328896
     11          1           0       -0.039384    0.126677    1.716066
     12          1           0        0.374596    2.111728   -0.944848
     13          6           0        2.572567   -0.667505    0.126161
     14          1           0        3.145496   -1.459698   -0.360617
     15          1           0        2.633100   -0.812214    1.211318
     16          1           0        3.029119    0.296916   -0.119232
 ---------------------------------------------------------------------
 Rotational constants (GHZ):      4.8460382      1.6717822      1.3760745
 Standard basis: def2TZVP (5D, 7F)
 There are   252 symmetry adapted basis functions of A   symmetry.
 Integral buffers will be    131072 words long.
 Raffenetti 2 integral format.
 Two-electron integral symmetry is turned on.
   252 basis functions,   404 primitive gaussians,   282 cartesian basis functions
    29 alpha electrons       29 beta electrons
       nuclear repulsion energy       325.8618927286 Hartrees.
 NAtoms=   16 NActive=   16 NUniq=   16 SFac= 1.00D+00 NAtFMM=   60 NAOKFM=F Big=F
 One-electron integrals computed using PRISM.
   1 Symmetry operations used in ECPInt.
 ECPInt:  NShTT=    5886 NPrTT=   17754 LenC2=    5734 LenP2D=   13748.
 LDataN:  DoStor=T MaxTD1= 6 Len=  172
 NBasis=   252 RedAO= T  NBF=   252
 NBsUse=   252 1.00D-06 NBFU=   252
 Harris functional with IExCor= 1009 diagonalized for initial guess.
 ExpMin= 7.01D-02 ExpMax= 4.48D+04 ExpMxC= 1.53D+03 IAcc=2 IRadAn=         4 AccDes= 0.00D+00
 HarFok:  IExCor= 1009 AccDes= 0.00D+00 IRadAn=         4 IDoV= 1
 ScaDFX=  1.000000  1.000000  1.000000  1.000000
 FoFCou: FMM=F IPFlag=           0 FMFlag=      100000 FMFlg1=           0
         NFxFlg=           0 DoJE=T BraDBF=F KetDBF=T FulRan=T
         Omega=  0.000000  0.000000  1.000000  0.000000  0.000000 ICntrl=     500 IOpCl=  0
         NMat0=    1 NMatS0=    1 NMatT0=    0 NMatD0=    1 NMtDS0=    0 NMtDT0=    0
         I1Cent=           4 NGrid=           0.
 Petite list used in FoFCou.
 Initial guess orbital symmetries:
       Occupied  (A) (A) (A) (A) (A) (A) (A) (A) (A) (A) (A) (A)
                 (A) (A) (A) (A) (A) (A) (A) (A) (A) (A) (A) (A)
                 (A) (A) (A) (A) (A)
       Virtual   (A) (A) (A) (A) (A) (A) (A) (A) (A) (A) (A) (A)
                 (A) (A) (A) (A) (A) (A) (A) (A) (A) (A) (A) (A)
                 (A) (A) (A) (A) (A) (A) (A) (A) (A) (A) (A) (A)
                 (A) (A) (A) (A) (A) (A) (A) (A) (A) (A) (A) (A)
                 (A) (A) (A) (A) (A) (A) (A) (A) (A) (A) (A) (A)
                 (A) (A) (A) (A) (A) (A) (A) (A) (A) (A) (A) (A)
                 (A) (A) (A) (A) (A) (A) (A) (A) (A) (A) (A) (A)
                 (A) (A) (A) (A) (A) (A) (A) (A) (A) (A) (A) (A)
                 (A) (A) (A) (A) (A) (A) (A) (A) (A) (A) (A) (A)
                 (A) (A) (A) (A) (A) (A) (A) (A) (A) (A) (A) (A)
                 (A) (A) (A) (A) (A) (A) (A) (A) (A) (A) (A) (A)
                 (A) (A) (A) (A) (A) (A) (A) (A) (A) (A) (A) (A)
                 (A) (A) (A) (A) (A) (A) (A) (A) (A) (A) (A) (A)
                 (A) (A) (A) (A) (A) (A) (A) (A) (A) (A) (A) (A)
                 (A) (A) (A) (A) (A) (A) (A) (A) (A) (A) (A) (A)
                 (A) (A) (A) (A) (A) (A) (A) (A) (A) (A) (A) (A)
                 (A) (A) (A) (A) (A) (A) (A) (A) (A) (A) (A) (A)
                 (A) (A) (A) (A) (A) (A) (A) (A) (A) (A) (A) (A)
                 (A) (A) (A) (A) (A) (A) (A)
 The electronic state of the initial guess is 1-A.
 Requested convergence on RMS density matrix=1.00D-08 within 128 cycles.
 Requested convergence on MAX density matrix=1.00D-06.
 Requested convergence on             energy=1.00D-06.
 No special actions if energy rises.
 Integral accuracy reduced to 1.0D-05 until final iterations.
 Initial convergence to 1.0D-05 achieved.  Increase integral accuracy.
 SCF Done:  E(RPBE1PBE) =  -560.059533444     A.U. after   12 cycles
             Convg  =    0.6471D-08             -V/T =  2.0032

 **********************************************************************

            Population analysis using the SCF density.

 **********************************************************************

 Orbital symmetries:
       Occupied  (A) (A) (A) (A) (A) (A) (A) (A) (A) (A) (A) (A)
                 (A) (A) (A) (A) (A) (A) (A) (A) (A) (A) (A) (A)
                 (A) (A) (A) (A) (A)
       Virtual   (A) (A) (A) (A) (A) (A) (A) (A) (A) (A) (A) (A)
                 (A) (A) (A) (A) (A) (A) (A) (A) (A) (A) (A) (A)
                 (A) (A) (A) (A) (A) (A) (A) (A) (A) (A) (A) (A)
                 (A) (A) (A) (A) (A) (A) (A) (A) (A) (A) (A) (A)
                 (A) (A) (A) (A) (A) (A) (A) (A) (A) (A) (A) (A)
                 (A) (A) (A) (A) (A) (A) (A) (A) (A) (A) (A) (A)
                 (A) (A) (A) (A) (A) (A) (A) (A) (A) (A) (A) (A)
                 (A) (A) (A) (A) (A) (A) (A) (A) (A) (A) (A) (A)
                 (A) (A) (A) (A) (A) (A) (A) (A) (A) (A) (A) (A)
                 (A) (A) (A) (A) (A) (A) (A) (A) (A) (A) (A) (A)
                 (A) (A) (A) (A) (A) (A) (A) (A) (A) (A) (A) (A)
                 (A) (A) (A) (A) (A) (A) (A) (A) (A) (A) (A) (A)
                 (A) (A) (A) (A) (A) (A) (A) (A) (A) (A) (A) (A)
                 (A) (A) (A) (A) (A) (A) (A) (A) (A) (A) (A) (A)
                 (A) (A) (A) (A) (A) (A) (A) (A) (A) (A) (A) (A)
                 (A) (A) (A) (A) (A) (A) (A) (A) (A) (A) (A) (A)
                 (A) (A) (A) (A) (A) (A) (A) (A) (A) (A) (A) (A)
                 (A) (A) (A) (A) (A) (A) (A) (A) (A) (A) (A) (A)
                 (A) (A) (A) (A) (A) (A) (A)
 The electronic state is 1-A.
 Alpha  occ. eigenvalues --  -66.25389 -19.20237 -19.20014 -10.26433 -10.21496
 Alpha  occ. eigenvalues --  -10.20742  -5.33056  -3.66582  -3.66464  -3.66331
 Alpha  occ. eigenvalues --   -1.04427  -1.02273  -0.78057  -0.70575  -0.63695
 Alpha  occ. eigenvalues --   -0.56872  -0.50980  -0.46832  -0.46332  -0.45768
 Alpha  occ. eigenvalues --   -0.44600  -0.40112  -0.38541  -0.37804  -0.36310
 Alpha  occ. eigenvalues --   -0.35399  -0.31828  -0.30486  -0.29681
 Alpha virt. eigenvalues --    0.03160   0.04524   0.05679   0.07045   0.09897
 Alpha virt. eigenvalues --    0.10033   0.11674   0.11825   0.12658   0.12784
 Alpha virt. eigenvalues --    0.13420   0.14564   0.16233   0.17393   0.18948
 Alpha virt. eigenvalues --    0.22098   0.22414   0.24002   0.25234   0.25619
 Alpha virt. eigenvalues --    0.26224   0.27891   0.28890   0.30109   0.31897
 Alpha virt. eigenvalues --    0.34812   0.38378   0.38845   0.39658   0.40427
 Alpha virt. eigenvalues --    0.41888   0.42269   0.43529   0.44121   0.44703
 Alpha virt. eigenvalues --    0.46082   0.46766   0.48146   0.48992   0.51050
 Alpha virt. eigenvalues --    0.51615   0.53591   0.54305   0.56404   0.58871
 Alpha virt. eigenvalues --    0.60787   0.62820   0.65003   0.67174   0.68582
 Alpha virt. eigenvalues --    0.71751   0.73380   0.76850   0.79780   0.80054
 Alpha virt. eigenvalues --    0.82797   0.85602   0.86518   0.88186   0.90200
 Alpha virt. eigenvalues --    0.93958   0.94603   0.99045   0.99537   1.01379
 Alpha virt. eigenvalues --    1.04490   1.05785   1.07428   1.08246   1.09498
 Alpha virt. eigenvalues --    1.10845   1.13772   1.15881   1.22203   1.24984
 Alpha virt. eigenvalues --    1.25238   1.27415   1.31292   1.39229   1.40336
 Alpha virt. eigenvalues --    1.42709   1.45896   1.48911   1.49235   1.50645
 Alpha virt. eigenvalues --    1.52997   1.55169   1.55416   1.56724   1.57305
 Alpha virt. eigenvalues --    1.59177   1.60511   1.63316   1.65014   1.65378
 Alpha virt. eigenvalues --    1.67923   1.71492   1.75519   1.78068   1.79200
 Alpha virt. eigenvalues --    1.81602   1.82846   1.86456   1.88300   1.90545
 Alpha virt. eigenvalues --    1.94175   1.95026   1.97688   2.01256   2.03498
 Alpha virt. eigenvalues --    2.04426   2.09166   2.10795   2.11624   2.15241
 Alpha virt. eigenvalues --    2.17384   2.20604   2.24070   2.25576   2.30495
 Alpha virt. eigenvalues --    2.32491   2.32926   2.33664   2.35278   2.36243
 Alpha virt. eigenvalues --    2.37063   2.40415   2.42499   2.45884   2.48531
 Alpha virt. eigenvalues --    2.52549   2.53397   2.55465   2.56788   2.58400
 Alpha virt. eigenvalues --    2.59754   2.60566   2.66662   2.68507   2.69124
 Alpha virt. eigenvalues --    2.71277   2.73482   2.77659   2.83149   2.86479
 Alpha virt. eigenvalues --    2.88286   2.92812   2.97356   2.99094   3.02144
 Alpha virt. eigenvalues --    3.03958   3.09401   3.09910   3.12390   3.14923
 Alpha virt. eigenvalues --    3.20431   3.22850   3.23886   3.29100   3.31299
 Alpha virt. eigenvalues --    3.32716   3.33799   3.35228   3.38685   3.43647
 Alpha virt. eigenvalues --    3.44718   3.47142   3.50547   3.53669   3.54383
 Alpha virt. eigenvalues --    3.58361   3.60901   3.63348   3.66027   3.77002
 Alpha virt. eigenvalues --    3.81622   3.86563   3.92537   3.95795   4.01972
 Alpha virt. eigenvalues --    4.18956   4.24497   4.24800   4.34908   4.36977
 Alpha virt. eigenvalues --    4.41575   4.47029   4.54505   4.55274   4.79187
 Alpha virt. eigenvalues --    5.15630   5.16855   5.17815   5.18116   5.28113
 Alpha virt. eigenvalues --    5.28896   5.38737   5.41806   5.45318   5.49896
 Alpha virt. eigenvalues --    5.79926   5.86626   6.02201   6.22539   6.38802
 Alpha virt. eigenvalues --    6.41911   6.53384   6.58376   6.60160   6.66173
 Alpha virt. eigenvalues --    6.67727   6.79151   6.82281   6.98547   7.05916
 Alpha virt. eigenvalues --    7.15745   7.22677  11.88537  22.36560  22.40156
 Alpha virt. eigenvalues --   22.45313  43.62174  43.91234
          Condensed to atoms (all electrons):
              1          2          3          4          5          6
     1  H    0.562084   0.411524  -0.034264  -0.027534  -0.028614  -0.007317
     2  C    0.411524   4.902150   0.316047   0.412209   0.408985  -0.029340
     3  C   -0.034264   0.316047   5.081727  -0.038175  -0.040317   0.371164
     4  H   -0.027534   0.412209  -0.038175   0.554615  -0.024533  -0.004689
     5  H   -0.028614   0.408985  -0.040317  -0.024533   0.555638   0.007995
     6  H   -0.007317  -0.029340   0.371164  -0.004689   0.007995   0.561498
     7  Si   0.006337  -0.015538   0.405639  -0.008330  -0.005273  -0.013322
     8  H   -0.007721  -0.029391   0.373689   0.008019  -0.004028  -0.023559
     9  O   -0.000216  -0.001265  -0.043760  -0.000066   0.001320   0.001953
    10  O   -0.000104   0.001177  -0.035645   0.000088   0.000060   0.004389
    11  H    0.000081   0.006721  -0.047696   0.001127   0.000859   0.002440
    12  H    0.000016  -0.000219  -0.003522   0.000006  -0.000004   0.000007
    13  C    0.000010  -0.000184   0.002685  -0.000027   0.000005   0.000358
    14  H    0.000000  -0.000002  -0.000038   0.000000   0.000000  -0.000122
    15  H    0.000002   0.000098  -0.000462   0.000016  -0.000003   0.000025
    16  H    0.000000  -0.000025   0.000473  -0.000001  -0.000001   0.000047
              7          8          9         10         11         12
     1  H    0.006337  -0.007721  -0.000216  -0.000104   0.000081   0.000016
     2  C   -0.015538  -0.029391  -0.001265   0.001177   0.006721  -0.000219
     3  C    0.405639   0.373689  -0.043760  -0.035645  -0.047696  -0.003522
     4  H   -0.008330   0.008019  -0.000066   0.000088   0.001127   0.000006
     5  H   -0.005273  -0.004028   0.001320   0.000060   0.000859  -0.000004
     6  H   -0.013322  -0.023559   0.001953   0.004389   0.002440   0.000007
     7  Si  11.866561  -0.023075   0.479124   0.464239   0.391422  -0.026547
     8  H   -0.023075   0.597825   0.000952   0.001076   0.002305   0.002291
     9  O    0.479124   0.000952   7.845761  -0.034155  -0.017908   0.299542
    10  O    0.464239   0.001076  -0.034155   7.839232  -0.027759  -0.001217
    11  H    0.391422   0.002305  -0.017908  -0.027759   0.744958   0.004028
    12  H   -0.026547   0.002291   0.299542  -0.001217   0.004028   0.405917
    13  C   -0.050975  -0.000123  -0.008067   0.258635   0.001266   0.000797
    14  H    0.006822   0.000006   0.000065  -0.039785  -0.000267   0.000026
    15  H   -0.013771  -0.000014  -0.000720  -0.043730   0.010271  -0.000077
    16  H   -0.006575   0.000044   0.006790  -0.043698  -0.002017   0.000389
             13         14         15         16
     1  H    0.000010   0.000000   0.000002   0.000000
     2  C   -0.000184  -0.000002   0.000098  -0.000025
     3  C    0.002685  -0.000038  -0.000462   0.000473
     4  H   -0.000027   0.000000   0.000016  -0.000001
     5  H    0.000005   0.000000  -0.000003  -0.000001
     6  H    0.000358  -0.000122   0.000025   0.000047
     7  Si  -0.050975   0.006822  -0.013771  -0.006575
     8  H   -0.000123   0.000006  -0.000014   0.000044
     9  O   -0.008067   0.000065  -0.000720   0.006790
    10  O    0.258635  -0.039785  -0.043730  -0.043698
    11  H    0.001266  -0.000267   0.010271  -0.002017
    12  H    0.000797   0.000026  -0.000077   0.000389
    13  C    4.770520   0.402037   0.416578   0.413208
    14  H    0.402037   0.566970  -0.031152  -0.033190
    15  H    0.416578  -0.031152   0.592708  -0.047542
    16  H    0.413208  -0.033190  -0.047542   0.592214
 Mulliken atomic charges:
              1
     1  H    0.125717
     2  C   -0.382945
     3  C   -0.307543
     4  H    0.127274
     5  H    0.127911
     6  H    0.128474
     7  Si   0.543262
     8  H    0.101703
     9  O   -0.529350
    10  O   -0.342804
    11  H   -0.069832
    12  H    0.318569
    13  C   -0.206723
    14  H    0.128630
    15  H    0.117773
    16  H    0.119885
 Sum of Mulliken atomic charges =   0.00000
 Mulliken charges with hydrogens summed into heavy atoms:
              1
     2  C   -0.002043
     3  C   -0.077365
     7  Si   0.473430
     9  O   -0.210782
    10  O   -0.342804
    13  C    0.159564
 Sum of Mulliken charges with hydrogens summed into heavy atoms =   0.00000
 Electronic spatial extent (au):  <R**2>=            934.0435
 Charge=              0.0000 electrons
 Dipole moment (field-independent basis, Debye):
    X=              0.1593    Y=             -0.0577    Z=             -1.1042  Tot=              1.1171
 Quadrupole moment (field-independent basis, Debye-Ang):
   XX=            -41.4930   YY=            -46.4893   ZZ=            -44.5059
   XY=             -0.2857   XZ=              0.5889   YZ=             -4.2479
 Traceless Quadrupole moment (field-independent basis, Debye-Ang):
   XX=              2.6697   YY=             -2.3265   ZZ=             -0.3432
   XY=             -0.2857   XZ=              0.5889   YZ=             -4.2479
 Octapole moment (field-independent basis, Debye-Ang**2):
  XXX=             19.8059  YYY=              2.7068  ZZZ=             -7.0382  XYY=              2.0934
  XXY=             -1.4085  XXZ=             -1.1268  XZZ=              3.1586  YZZ=              5.5455
  YYZ=             -9.2270  XYZ=             -2.2036
 Hexadecapole moment (field-independent basis, Debye-Ang**3):
 XXXX=           -853.1780 YYYY=           -254.2882 ZZZZ=           -128.9942 XXXY=            -12.4439
 XXXZ=              2.5315 YYYX=             -2.5576 YYYZ=            -19.3524 ZZZX=              0.1263
 ZZZY=             -7.9742 XXYY=           -183.6844 XXZZ=           -168.0533 YYZZ=            -53.3461
 XXYZ=              0.4043 YYXZ=             -5.2294 ZZXY=              0.1269
 N-N= 3.258618927286D+02 E-N=-1.975747734937D+03  KE= 5.582486702109D+02
 1\1\GINC-TARSUS2\SP\RPBE1PBE\def2TZVP\C3H10O2Si1\RENATO\29-Jun-2018\0\
 \#SP PBE1PBE/Def2TZVP geom=connectivity\\Structure: 67\\0,1\H,0,0.,0.,
 0.\C,0,1.093,0.,0.\C,0,1.655,1.421,0.\H,0,1.41,-0.56,-0.885\H,0,1.424,
 -0.557,0.88\H,0,1.308,1.969,-0.883\Si,0,3.513,1.515,0.035\H,0,1.282,1.
 975,0.868\O,0,4.11,1.86,1.533\O,0,3.922,2.665,-1.064\H,0,4.17,0.228,-0
 .308\H,0,3.773,2.641,1.975\C,0,5.251,2.988,-1.401\H,0,5.232,3.728,-2.2
 04\H,0,5.8,2.107,-1.754\H,0,5.79,3.411,-0.547\\Version=EM64L-G09RevC.0
 1\State=1-A\HF=-560.0595334\RMSD=6.471e-09\Dipole=-0.1737032,0.4013561
 ,0.0435177\Quadrupole=0.3767397,-0.162326,-0.2144137,1.6225736,-2.4612
 841,2.216238\PG=C01 [X(C3H10O2Si1)]\\@


 THERE IS NOTHING NOBLE IN BEING SUPERIOR TO SOME OTHER MAN.
 TRUE NOBILITY IS BEING SUPERIOR TO YOUR FORMER SELF.

                                                   -- HINDU PROVERB
 Job cpu time:  0 days  0 hours  9 minutes  1.2 seconds.
 File lengths (MBytes):  RWF=     40 Int=      0 D2E=      0 Chk=      3 Scr=      1
 Normal termination of Gaussian 09 at Fri Jun 29 14:44:55 2018.
