 Entering Gaussian System, Link 0=g09
 Initial command:
 /usr/local/gaussian09/g09/l1.exe /scratch/renato/Gau-31778.inp -scrdir=/scratch/renato/
 Entering Link 1 = /usr/local/gaussian09/g09/l1.exe PID=     31780.
  
 Copyright (c) 1988,1990,1992,1993,1995,1998,2003,2009,2011,
            Gaussian, Inc.  All Rights Reserved.
  
 This is part of the Gaussian(R) 09 program.  It is based on
 the Gaussian(R) 03 system (copyright 2003, Gaussian, Inc.),
 the Gaussian(R) 98 system (copyright 1998, Gaussian, Inc.),
 the Gaussian(R) 94 system (copyright 1995, Gaussian, Inc.),
 the Gaussian 92(TM) system (copyright 1992, Gaussian, Inc.),
 the Gaussian 90(TM) system (copyright 1990, Gaussian, Inc.),
 the Gaussian 88(TM) system (copyright 1988, Gaussian, Inc.),
 the Gaussian 86(TM) system (copyright 1986, Carnegie Mellon
 University), and the Gaussian 82(TM) system (copyright 1983,
 Carnegie Mellon University). Gaussian is a federally registered
 trademark of Gaussian, Inc.
  
 This software contains proprietary and confidential information,
 including trade secrets, belonging to Gaussian, Inc.
  
 This software is provided under written license and may be
 used, copied, transmitted, or stored only in accord with that
 written license.
  
 The following legend is applicable only to US Government
 contracts under FAR:
  
                    RESTRICTED RIGHTS LEGEND
  
 Use, reproduction and disclosure by the US Government is
 subject to restrictions as set forth in subparagraphs (a)
 and (c) of the Commercial Computer Software - Restricted
 Rights clause in FAR 52.227-19.
  
 Gaussian, Inc.
 340 Quinnipiac St., Bldg. 40, Wallingford CT 06492
  
  
 ---------------------------------------------------------------
 Warning -- This program may not be used in any manner that
 competes with the business of Gaussian, Inc. or will provide
 assistance to any competitor of Gaussian, Inc.  The licensee
 of this program is prohibited from giving any competitor of
 Gaussian, Inc. access to this program.  By using this program,
 the user acknowledges that Gaussian, Inc. is engaged in the
 business of creating and licensing software in the field of
 computational chemistry and represents and warrants to the
 licensee that it is not a competitor of Gaussian, Inc. and that
 it will not use this program in any manner prohibited above.
 ---------------------------------------------------------------
  

 Cite this work as:
 Gaussian 09, Revision C.01,
 M. J. Frisch, G. W. Trucks, H. B. Schlegel, G. E. Scuseria, 
 M. A. Robb, J. R. Cheeseman, G. Scalmani, V. Barone, B. Mennucci, 
 G. A. Petersson, H. Nakatsuji, M. Caricato, X. Li, H. P. Hratchian, 
 A. F. Izmaylov, J. Bloino, G. Zheng, J. L. Sonnenberg, M. Hada, 
 M. Ehara, K. Toyota, R. Fukuda, J. Hasegawa, M. Ishida, T. Nakajima, 
 Y. Honda, O. Kitao, H. Nakai, T. Vreven, J. A. Montgomery, Jr., 
 J. E. Peralta, F. Ogliaro, M. Bearpark, J. J. Heyd, E. Brothers, 
 K. N. Kudin, V. N. Staroverov, T. Keith, R. Kobayashi, J. Normand, 
 K. Raghavachari, A. Rendell, J. C. Burant, S. S. Iyengar, J. Tomasi, 
 M. Cossi, N. Rega, J. M. Millam, M. Klene, J. E. Knox, J. B. Cross, 
 V. Bakken, C. Adamo, J. Jaramillo, R. Gomperts, R. E. Stratmann, 
 O. Yazyev, A. J. Austin, R. Cammi, C. Pomelli, J. W. Ochterski, 
 R. L. Martin, K. Morokuma, V. G. Zakrzewski, G. A. Voth, 
 P. Salvador, J. J. Dannenberg, S. Dapprich, A. D. Daniels, 
 O. Farkas, J. B. Foresman, J. V. Ortiz, J. Cioslowski, 
 and D. J. Fox, Gaussian, Inc., Wallingford CT, 2010.
 
 ******************************************
 Gaussian 09:  EM64L-G09RevC.01 23-Sep-2011
                29-Jun-2018 
 ******************************************
 %nproc=2
 Will use up to    2 processors via shared memory.
 %mem=256MB
 %RWF=d23.rwf
 %chk=d2369
 %NoSave
 --------------------------------------
 #SP PBE1PBE/Def2TZVP geom=connectivity
 --------------------------------------
 1/38=1,57=2/1;
 2/12=2,17=6,18=5,40=1/2;
 3/5=44,7=101,11=2,16=1,25=1,30=1,74=-13/1,2,3;
 4//1;
 5/5=2,38=5/2;
 6/7=2,8=2,9=2,10=2,28=1/1;
 99/5=1,9=1/99;
 -------------
 Structure: 69
 -------------
 Charge =  0 Multiplicity = 1
 Symbolic Z-Matrix:
 H                     0.        0.        0. 
 C                     1.093     0.        0. 
 C                     1.655     1.421     0. 
 H                     1.41     -0.56     -0.885 
 H                     1.424    -0.557     0.88 
 H                     1.308     1.969    -0.883 
 Si                    3.513     1.515     0.035 
 H                     1.282     1.975     0.868 
 O                     4.115     1.756     1.551 
 O                     3.917     2.739    -0.983 
 H                     4.17      0.256    -0.399 
 H                     3.778     2.503     2.048 
 C                     5.244     3.087    -1.301 
 H                     5.222     3.881    -2.05 
 H                     5.793     2.234    -1.716 
 H                     5.785     3.45     -0.422 
 
                          Input orientation:                          
 ---------------------------------------------------------------------
 Center     Atomic      Atomic             Coordinates (Angstroms)
 Number     Number       Type             X           Y           Z
 ---------------------------------------------------------------------
      1          1           0        0.000000    0.000000    0.000000
      2          6           0        1.093000    0.000000    0.000000
      3          6           0        1.655000    1.421000    0.000000
      4          1           0        1.410000   -0.560000   -0.885000
      5          1           0        1.424000   -0.557000    0.880000
      6          1           0        1.308000    1.969000   -0.883000
      7         14           0        3.513000    1.515000    0.035000
      8          1           0        1.282000    1.975000    0.868000
      9          8           0        4.115000    1.756000    1.551000
     10          8           0        3.917000    2.739000   -0.983000
     11          1           0        4.170000    0.256000   -0.399000
     12          1           0        3.778000    2.503000    2.048000
     13          6           0        5.244000    3.087000   -1.301000
     14          1           0        5.222000    3.881000   -2.050000
     15          1           0        5.793000    2.234000   -1.716000
     16          1           0        5.785000    3.450000   -0.422000
 ---------------------------------------------------------------------
                    Distance matrix (angstroms):
                    1          2          3          4          5
     1  H    0.000000
     2  C    1.093000   0.000000
     3  C    2.181345   1.528098   0.000000
     4  H    1.756395   1.094218   2.183486   0.000000
     5  H    1.764207   1.092799   2.177210   1.765058   0.000000
     6  H    2.523393   2.168611   1.095629   2.531057   3.082580
     7  Si   3.825914   2.855320   1.860706   3.094291   3.061230
     8  H    2.509497   2.165588   1.095203   3.084740   2.536007
     9  O    4.735226   3.823823   2.927358   4.314508   3.611328
    10  O    4.879682   4.055045   2.796436   4.144642   4.533148
    11  H    4.196860   3.113305   2.800295   2.918844   3.136451
    12  H    4.973188   4.203396   3.141999   4.857148   4.033502
    13  C    6.222677   5.334133   4.165222   5.307845   5.712083
    14  H    6.821579   6.026052   4.793494   5.967499   6.534948
    15  H    6.441604   5.479545   4.552875   5.263809   5.798022
    16  H    6.748838   5.839131   4.620804   5.952738   6.063792
                    6          7          8          9         10
     6  H    0.000000
     7  Si   2.431227   0.000000
     8  H    1.751203   2.425459   0.000000
     9  O    3.721421   1.648861   2.922386   0.000000
    10  O    2.722091   1.642473   3.309550   2.725188   0.000000
    11  H    3.370411   1.484953   3.591768   2.460798   2.563270
    12  H    3.869989   2.257994   2.810907   0.958429   3.043350
    13  C    4.112997   2.693036   4.651725   3.343667   1.408246
    14  H    4.509660   3.586901   5.260338   4.325306   2.036094
    15  H    4.569392   2.963336   5.205118   3.703709   2.076461
    16  H    4.738081   3.019115   4.910879   3.090512   2.075974
                   11         12         13         14         15
    11  H    0.000000
    12  H    3.345218   0.000000
    13  C    3.159374   3.702163   0.000000
    14  H    4.119846   4.558248   1.091751   0.000000
    15  H    2.877690   4.277883   1.096009   1.774882   0.000000
    16  H    3.579161   3.320506   1.094117   1.775701   1.775713
                   16
    16  H    0.000000
 Stoichiometry    C3H10O2Si
 Framework group  C1[X(C3H10O2Si)]
 Deg. of freedom    42
 Full point group                 C1      NOp   1
 Largest Abelian subgroup         C1      NOp   1
 Largest concise Abelian subgroup C1      NOp   1
                         Standard orientation:                         
 ---------------------------------------------------------------------
 Center     Atomic      Atomic             Coordinates (Angstroms)
 Number     Number       Type             X           Y           Z
 ---------------------------------------------------------------------
      1          1           0       -3.620708   -0.829051   -0.235148
      2          6           0       -2.740544   -0.472068    0.305707
      3          6           0       -1.507949   -0.423907   -0.596220
      4          1           0       -2.594369   -1.147381    1.154176
      5          1           0       -2.976939    0.516614    0.706750
      6          1           0       -1.288707   -1.419778   -0.996939
      7         14           0        0.032005    0.206888    0.236164
      8          1           0       -1.698704    0.217703   -1.463065
      9          8           0        0.309376    1.806107   -0.054191
     10          8           0        1.257336   -0.735056   -0.319735
     11          1           0       -0.032787    0.133318    1.717878
     12          1           0        0.336686    2.092217   -0.968511
     13          6           0        2.588217   -0.633833    0.129338
     14          1           0        3.174184   -1.420989   -0.349148
     15          1           0        2.655064   -0.763494    1.215595
     16          1           0        3.026171    0.334839   -0.129433
 ---------------------------------------------------------------------
 Rotational constants (GHZ):      4.9267677      1.6621142      1.3737330
 Standard basis: def2TZVP (5D, 7F)
 There are   252 symmetry adapted basis functions of A   symmetry.
 Integral buffers will be    131072 words long.
 Raffenetti 2 integral format.
 Two-electron integral symmetry is turned on.
   252 basis functions,   404 primitive gaussians,   282 cartesian basis functions
    29 alpha electrons       29 beta electrons
       nuclear repulsion energy       325.8845542503 Hartrees.
 NAtoms=   16 NActive=   16 NUniq=   16 SFac= 1.00D+00 NAtFMM=   60 NAOKFM=F Big=F
 One-electron integrals computed using PRISM.
   1 Symmetry operations used in ECPInt.
 ECPInt:  NShTT=    5886 NPrTT=   17754 LenC2=    5730 LenP2D=   13743.
 LDataN:  DoStor=T MaxTD1= 6 Len=  172
 NBasis=   252 RedAO= T  NBF=   252
 NBsUse=   252 1.00D-06 NBFU=   252
 Harris functional with IExCor= 1009 diagonalized for initial guess.
 ExpMin= 7.01D-02 ExpMax= 4.48D+04 ExpMxC= 1.53D+03 IAcc=2 IRadAn=         4 AccDes= 0.00D+00
 HarFok:  IExCor= 1009 AccDes= 0.00D+00 IRadAn=         4 IDoV= 1
 ScaDFX=  1.000000  1.000000  1.000000  1.000000
 FoFCou: FMM=F IPFlag=           0 FMFlag=      100000 FMFlg1=           0
         NFxFlg=           0 DoJE=T BraDBF=F KetDBF=T FulRan=T
         Omega=  0.000000  0.000000  1.000000  0.000000  0.000000 ICntrl=     500 IOpCl=  0
         NMat0=    1 NMatS0=    1 NMatT0=    0 NMatD0=    1 NMtDS0=    0 NMtDT0=    0
         I1Cent=           4 NGrid=           0.
 Petite list used in FoFCou.
 Initial guess orbital symmetries:
       Occupied  (A) (A) (A) (A) (A) (A) (A) (A) (A) (A) (A) (A)
                 (A) (A) (A) (A) (A) (A) (A) (A) (A) (A) (A) (A)
                 (A) (A) (A) (A) (A)
       Virtual   (A) (A) (A) (A) (A) (A) (A) (A) (A) (A) (A) (A)
                 (A) (A) (A) (A) (A) (A) (A) (A) (A) (A) (A) (A)
                 (A) (A) (A) (A) (A) (A) (A) (A) (A) (A) (A) (A)
                 (A) (A) (A) (A) (A) (A) (A) (A) (A) (A) (A) (A)
                 (A) (A) (A) (A) (A) (A) (A) (A) (A) (A) (A) (A)
                 (A) (A) (A) (A) (A) (A) (A) (A) (A) (A) (A) (A)
                 (A) (A) (A) (A) (A) (A) (A) (A) (A) (A) (A) (A)
                 (A) (A) (A) (A) (A) (A) (A) (A) (A) (A) (A) (A)
                 (A) (A) (A) (A) (A) (A) (A) (A) (A) (A) (A) (A)
                 (A) (A) (A) (A) (A) (A) (A) (A) (A) (A) (A) (A)
                 (A) (A) (A) (A) (A) (A) (A) (A) (A) (A) (A) (A)
                 (A) (A) (A) (A) (A) (A) (A) (A) (A) (A) (A) (A)
                 (A) (A) (A) (A) (A) (A) (A) (A) (A) (A) (A) (A)
                 (A) (A) (A) (A) (A) (A) (A) (A) (A) (A) (A) (A)
                 (A) (A) (A) (A) (A) (A) (A) (A) (A) (A) (A) (A)
                 (A) (A) (A) (A) (A) (A) (A) (A) (A) (A) (A) (A)
                 (A) (A) (A) (A) (A) (A) (A) (A) (A) (A) (A) (A)
                 (A) (A) (A) (A) (A) (A) (A) (A) (A) (A) (A) (A)
                 (A) (A) (A) (A) (A) (A) (A)
 The electronic state of the initial guess is 1-A.
 Requested convergence on RMS density matrix=1.00D-08 within 128 cycles.
 Requested convergence on MAX density matrix=1.00D-06.
 Requested convergence on             energy=1.00D-06.
 No special actions if energy rises.
 Integral accuracy reduced to 1.0D-05 until final iterations.
 Initial convergence to 1.0D-05 achieved.  Increase integral accuracy.
 SCF Done:  E(RPBE1PBE) =  -560.059712858     A.U. after   12 cycles
             Convg  =    0.6690D-08             -V/T =  2.0032

 **********************************************************************

            Population analysis using the SCF density.

 **********************************************************************

 Orbital symmetries:
       Occupied  (A) (A) (A) (A) (A) (A) (A) (A) (A) (A) (A) (A)
                 (A) (A) (A) (A) (A) (A) (A) (A) (A) (A) (A) (A)
                 (A) (A) (A) (A) (A)
       Virtual   (A) (A) (A) (A) (A) (A) (A) (A) (A) (A) (A) (A)
                 (A) (A) (A) (A) (A) (A) (A) (A) (A) (A) (A) (A)
                 (A) (A) (A) (A) (A) (A) (A) (A) (A) (A) (A) (A)
                 (A) (A) (A) (A) (A) (A) (A) (A) (A) (A) (A) (A)
                 (A) (A) (A) (A) (A) (A) (A) (A) (A) (A) (A) (A)
                 (A) (A) (A) (A) (A) (A) (A) (A) (A) (A) (A) (A)
                 (A) (A) (A) (A) (A) (A) (A) (A) (A) (A) (A) (A)
                 (A) (A) (A) (A) (A) (A) (A) (A) (A) (A) (A) (A)
                 (A) (A) (A) (A) (A) (A) (A) (A) (A) (A) (A) (A)
                 (A) (A) (A) (A) (A) (A) (A) (A) (A) (A) (A) (A)
                 (A) (A) (A) (A) (A) (A) (A) (A) (A) (A) (A) (A)
                 (A) (A) (A) (A) (A) (A) (A) (A) (A) (A) (A) (A)
                 (A) (A) (A) (A) (A) (A) (A) (A) (A) (A) (A) (A)
                 (A) (A) (A) (A) (A) (A) (A) (A) (A) (A) (A) (A)
                 (A) (A) (A) (A) (A) (A) (A) (A) (A) (A) (A) (A)
                 (A) (A) (A) (A) (A) (A) (A) (A) (A) (A) (A) (A)
                 (A) (A) (A) (A) (A) (A) (A) (A) (A) (A) (A) (A)
                 (A) (A) (A) (A) (A) (A) (A) (A) (A) (A) (A) (A)
                 (A) (A) (A) (A) (A) (A) (A)
 The electronic state is 1-A.
 Alpha  occ. eigenvalues --  -66.25387 -19.20245 -19.20003 -10.26411 -10.21494
 Alpha  occ. eigenvalues --  -10.20757  -5.33055  -3.66581  -3.66462  -3.66330
 Alpha  occ. eigenvalues --   -1.04431  -1.02283  -0.78061  -0.70585  -0.63697
 Alpha  occ. eigenvalues --   -0.56886  -0.50974  -0.46848  -0.46319  -0.45782
 Alpha  occ. eigenvalues --   -0.44637  -0.40062  -0.38548  -0.37848  -0.36292
 Alpha  occ. eigenvalues --   -0.35436  -0.31832  -0.30481  -0.29670
 Alpha virt. eigenvalues --    0.03147   0.04530   0.05732   0.07039   0.09930
 Alpha virt. eigenvalues --    0.09999   0.11718   0.11885   0.12706   0.12751
 Alpha virt. eigenvalues --    0.13379   0.14604   0.16265   0.17328   0.18910
 Alpha virt. eigenvalues --    0.22104   0.22481   0.23879   0.25122   0.25655
 Alpha virt. eigenvalues --    0.26020   0.27991   0.28986   0.30067   0.32017
 Alpha virt. eigenvalues --    0.34615   0.38279   0.38920   0.39564   0.40447
 Alpha virt. eigenvalues --    0.41966   0.42329   0.43679   0.44084   0.44720
 Alpha virt. eigenvalues --    0.46165   0.46744   0.48110   0.49028   0.51160
 Alpha virt. eigenvalues --    0.51417   0.53660   0.54361   0.56590   0.58797
 Alpha virt. eigenvalues --    0.60880   0.63167   0.64793   0.67318   0.68297
 Alpha virt. eigenvalues --    0.71745   0.73443   0.76832   0.79587   0.79763
 Alpha virt. eigenvalues --    0.82677   0.85918   0.86367   0.88224   0.90245
 Alpha virt. eigenvalues --    0.93981   0.94465   0.99219   0.99512   1.01801
 Alpha virt. eigenvalues --    1.04779   1.05808   1.07030   1.08194   1.09383
 Alpha virt. eigenvalues --    1.11007   1.13843   1.15700   1.22265   1.24870
 Alpha virt. eigenvalues --    1.25543   1.27424   1.31329   1.39188   1.40390
 Alpha virt. eigenvalues --    1.42689   1.45800   1.48613   1.49271   1.50670
 Alpha virt. eigenvalues --    1.52989   1.55240   1.55404   1.57003   1.57305
 Alpha virt. eigenvalues --    1.59392   1.60512   1.63388   1.64895   1.65032
 Alpha virt. eigenvalues --    1.67823   1.71680   1.75361   1.78156   1.79289
 Alpha virt. eigenvalues --    1.81383   1.82865   1.86470   1.88189   1.90464
 Alpha virt. eigenvalues --    1.94514   1.95001   1.98001   2.01241   2.03305
 Alpha virt. eigenvalues --    2.04328   2.09280   2.10536   2.11903   2.15391
 Alpha virt. eigenvalues --    2.17279   2.20552   2.24010   2.25823   2.30657
 Alpha virt. eigenvalues --    2.32674   2.33056   2.33676   2.35370   2.36073
 Alpha virt. eigenvalues --    2.37194   2.40476   2.42402   2.45990   2.48674
 Alpha virt. eigenvalues --    2.52294   2.53420   2.55025   2.56911   2.58398
 Alpha virt. eigenvalues --    2.59790   2.60531   2.66639   2.68451   2.69201
 Alpha virt. eigenvalues --    2.71364   2.73999   2.77775   2.83050   2.86626
 Alpha virt. eigenvalues --    2.88307   2.92509   2.97468   2.99417   3.02052
 Alpha virt. eigenvalues --    3.03936   3.09438   3.09761   3.12700   3.15125
 Alpha virt. eigenvalues --    3.20213   3.22916   3.23806   3.28896   3.31241
 Alpha virt. eigenvalues --    3.32653   3.33682   3.35166   3.38916   3.43523
 Alpha virt. eigenvalues --    3.44662   3.47009   3.50746   3.53818   3.54642
 Alpha virt. eigenvalues --    3.58423   3.60615   3.63382   3.66514   3.76981
 Alpha virt. eigenvalues --    3.81575   3.86439   3.92500   3.95865   4.02168
 Alpha virt. eigenvalues --    4.19095   4.24469   4.24953   4.34943   4.37058
 Alpha virt. eigenvalues --    4.41608   4.47001   4.54596   4.55425   4.79102
 Alpha virt. eigenvalues --    5.15602   5.16868   5.17828   5.18116   5.28140
 Alpha virt. eigenvalues --    5.28895   5.38796   5.41828   5.45345   5.49932
 Alpha virt. eigenvalues --    5.80045   5.86665   6.02273   6.22579   6.38581
 Alpha virt. eigenvalues --    6.41923   6.53410   6.58271   6.60188   6.66182
 Alpha virt. eigenvalues --    6.67714   6.79154   6.82325   6.98451   7.05963
 Alpha virt. eigenvalues --    7.15739   7.22700  11.88739  22.36646  22.40203
 Alpha virt. eigenvalues --   22.45480  43.62597  43.91325
          Condensed to atoms (all electrons):
              1          2          3          4          5          6
     1  H    0.561481   0.411993  -0.034697  -0.027477  -0.028595  -0.007348
     2  C    0.411993   4.904487   0.315611   0.411972   0.408802  -0.029729
     3  C   -0.034697   0.315611   5.078453  -0.037851  -0.040306   0.370876
     4  H   -0.027477   0.411972  -0.037851   0.554301  -0.024445  -0.004661
     5  H   -0.028595   0.408802  -0.040306  -0.024445   0.555314   0.008050
     6  H   -0.007348  -0.029729   0.370876  -0.004661   0.008050   0.561954
     7  Si   0.006509  -0.016986   0.407423  -0.008352  -0.005203  -0.013053
     8  H   -0.007598  -0.030171   0.374535   0.007998  -0.004009  -0.023174
     9  O   -0.000218  -0.001756  -0.043076  -0.000079   0.001593   0.002057
    10  O   -0.000098   0.001251  -0.035399   0.000064   0.000070   0.004314
    11  H    0.000062   0.006765  -0.047410   0.001311   0.000756   0.002300
    12  H    0.000016  -0.000212  -0.003516   0.000008  -0.000010   0.000002
    13  C    0.000010  -0.000182   0.002548  -0.000021   0.000004   0.000324
    14  H    0.000000  -0.000004  -0.000043   0.000001   0.000000  -0.000118
    15  H    0.000002   0.000090  -0.000394   0.000016  -0.000003   0.000005
    16  H    0.000000  -0.000019   0.000462  -0.000002  -0.000001   0.000053
              7          8          9         10         11         12
     1  H    0.006509  -0.007598  -0.000218  -0.000098   0.000062   0.000016
     2  C   -0.016986  -0.030171  -0.001756   0.001251   0.006765  -0.000212
     3  C    0.407423   0.374535  -0.043076  -0.035399  -0.047410  -0.003516
     4  H   -0.008352   0.007998  -0.000079   0.000064   0.001311   0.000008
     5  H   -0.005203  -0.004009   0.001593   0.000070   0.000756  -0.000010
     6  H   -0.013053  -0.023174   0.002057   0.004314   0.002300   0.000002
     7  Si  11.867954  -0.022750   0.478452   0.463895   0.390846  -0.026707
     8  H   -0.022750   0.597040   0.000720   0.000979   0.002369   0.002332
     9  O    0.478452   0.000720   7.845465  -0.033924  -0.017684   0.299679
    10  O    0.463895   0.000979  -0.033924   7.838769  -0.027676  -0.001177
    11  H    0.390846   0.002369  -0.017684  -0.027676   0.745237   0.004053
    12  H   -0.026707   0.002332   0.299679  -0.001177   0.004053   0.405780
    13  C   -0.050776  -0.000106  -0.008132   0.258909   0.001343   0.000806
    14  H    0.006820   0.000008   0.000067  -0.039786  -0.000268   0.000025
    15  H   -0.013874  -0.000012  -0.000694  -0.043696   0.010244  -0.000074
    16  H   -0.006412   0.000040   0.006795  -0.043821  -0.002028   0.000375
             13         14         15         16
     1  H    0.000010   0.000000   0.000002   0.000000
     2  C   -0.000182  -0.000004   0.000090  -0.000019
     3  C    0.002548  -0.000043  -0.000394   0.000462
     4  H   -0.000021   0.000001   0.000016  -0.000002
     5  H    0.000004   0.000000  -0.000003  -0.000001
     6  H    0.000324  -0.000118   0.000005   0.000053
     7  Si  -0.050776   0.006820  -0.013874  -0.006412
     8  H   -0.000106   0.000008  -0.000012   0.000040
     9  O   -0.008132   0.000067  -0.000694   0.006795
    10  O    0.258909  -0.039786  -0.043696  -0.043821
    11  H    0.001343  -0.000268   0.010244  -0.002028
    12  H    0.000806   0.000025  -0.000074   0.000375
    13  C    4.769896   0.402110   0.416598   0.413316
    14  H    0.402110   0.567081  -0.031168  -0.033299
    15  H    0.416598  -0.031168   0.592914  -0.047620
    16  H    0.413316  -0.033299  -0.047620   0.592405
 Mulliken atomic charges:
              1
     1  H    0.125957
     2  C   -0.381912
     3  C   -0.307215
     4  H    0.127215
     5  H    0.127983
     6  H    0.128148
     7  Si   0.542214
     8  H    0.101797
     9  O   -0.529266
    10  O   -0.342673
    11  H   -0.070218
    12  H    0.318620
    13  C   -0.206648
    14  H    0.128574
    15  H    0.117667
    16  H    0.119756
 Sum of Mulliken atomic charges =   0.00000
 Mulliken charges with hydrogens summed into heavy atoms:
              1
     2  C   -0.000756
     3  C   -0.077269
     7  Si   0.471996
     9  O   -0.210647
    10  O   -0.342673
    13  C    0.159349
 Sum of Mulliken charges with hydrogens summed into heavy atoms =   0.00000
 Electronic spatial extent (au):  <R**2>=            934.8504
 Charge=              0.0000 electrons
 Dipole moment (field-independent basis, Debye):
    X=              0.1528    Y=             -0.0646    Z=             -1.1040  Tot=              1.1164
 Quadrupole moment (field-independent basis, Debye-Ang):
   XX=            -41.4842   YY=            -46.5964   ZZ=            -44.4006
   XY=             -0.1795   XZ=              0.6571   YZ=             -4.2212
 Traceless Quadrupole moment (field-independent basis, Debye-Ang):
   XX=              2.6762   YY=             -2.4360   ZZ=             -0.2402
   XY=             -0.1795   XZ=              0.6571   YZ=             -4.2212
 Octapole moment (field-independent basis, Debye-Ang**2):
  XXX=             20.0304  YYY=              2.4578  ZZZ=             -7.2345  XYY=              1.8920
  XXY=             -1.3677  XXZ=             -1.0502  XZZ=              3.0753  YZZ=              5.6728
  YYZ=             -9.0532  XYZ=             -1.9771
 Hexadecapole moment (field-independent basis, Debye-Ang**3):
 XXXX=           -858.3365 YYYY=           -251.2207 ZZZZ=           -127.5253 XXXY=            -12.1458
 XXXZ=              2.6451 YYYX=             -2.8153 YYYZ=            -18.8873 ZZZX=              0.2074
 ZZZY=             -8.7867 XXYY=           -184.2065 XXZZ=           -168.8604 YYZZ=            -52.6832
 XXYZ=              0.2682 YYXZ=             -4.8717 ZZXY=              0.1860
 N-N= 3.258845542503D+02 E-N=-1.975793561437D+03  KE= 5.582507916320D+02
 1\1\GINC-TARSUS2\SP\RPBE1PBE\def2TZVP\C3H10O2Si1\RENATO\29-Jun-2018\0\
 \#SP PBE1PBE/Def2TZVP geom=connectivity\\Structure: 69\\0,1\H,0,0.,0.,
 0.\C,0,1.093,0.,0.\C,0,1.655,1.421,0.\H,0,1.41,-0.56,-0.885\H,0,1.424,
 -0.557,0.88\H,0,1.308,1.969,-0.883\Si,0,3.513,1.515,0.035\H,0,1.282,1.
 975,0.868\O,0,4.115,1.756,1.551\O,0,3.917,2.739,-0.983\H,0,4.17,0.256,
 -0.399\H,0,3.778,2.503,2.048\C,0,5.244,3.087,-1.301\H,0,5.222,3.881,-2
 .05\H,0,5.793,2.234,-1.716\H,0,5.785,3.45,-0.422\\Version=EM64L-G09Rev
 C.01\State=1-A\HF=-560.0597129\RMSD=6.690e-09\Dipole=-0.1748102,0.3961
 309,0.0738374\Quadrupole=0.3580834,-0.4681303,0.1100469,1.8007317,-2.3
 367294,2.2041795\PG=C01 [X(C3H10O2Si1)]\\@


 IF YOU BELIEVE CERTAIN WORDS, YOU BELIEVE THEIR HIDDEN ARGUMENTS.
 WHEN YOU BELIEVE SOMETHING IS RIGHT OR WRONG, TRUE OR FALSE, 
 YOU BELIEVE THE ASSUMPTIONS IN THE WORDS WHICH EXPRESS THE ARGUMENTS.
 SUCH ASSUMPTIONS ARE OFTEN FULL OF HOLES, BUT REMAIN MOST PRECIOUS 
 TO THE CONVINCED.

                 -- THE OPEN-ENDED PROOF FROM THE PANOPLIA PROPHETICA
                    CHILDREN OF DUNE BY FRANK HERBERT
 Job cpu time:  0 days  0 hours  6 minutes 45.4 seconds.
 File lengths (MBytes):  RWF=     40 Int=      0 D2E=      0 Chk=      3 Scr=      1
 Normal termination of Gaussian 09 at Fri Jun 29 14:52:32 2018.
