 Entering Gaussian System, Link 0=g09
 Initial command:
 /usr/local/gaussian09/g09/l1.exe /scratch/renato/Gau-30565.inp -scrdir=/scratch/renato/
 Entering Link 1 = /usr/local/gaussian09/g09/l1.exe PID=     30567.
  
 Copyright (c) 1988,1990,1992,1993,1995,1998,2003,2009,2011,
            Gaussian, Inc.  All Rights Reserved.
  
 This is part of the Gaussian(R) 09 program.  It is based on
 the Gaussian(R) 03 system (copyright 2003, Gaussian, Inc.),
 the Gaussian(R) 98 system (copyright 1998, Gaussian, Inc.),
 the Gaussian(R) 94 system (copyright 1995, Gaussian, Inc.),
 the Gaussian 92(TM) system (copyright 1992, Gaussian, Inc.),
 the Gaussian 90(TM) system (copyright 1990, Gaussian, Inc.),
 the Gaussian 88(TM) system (copyright 1988, Gaussian, Inc.),
 the Gaussian 86(TM) system (copyright 1986, Carnegie Mellon
 University), and the Gaussian 82(TM) system (copyright 1983,
 Carnegie Mellon University). Gaussian is a federally registered
 trademark of Gaussian, Inc.
  
 This software contains proprietary and confidential information,
 including trade secrets, belonging to Gaussian, Inc.
  
 This software is provided under written license and may be
 used, copied, transmitted, or stored only in accord with that
 written license.
  
 The following legend is applicable only to US Government
 contracts under FAR:
  
                    RESTRICTED RIGHTS LEGEND
  
 Use, reproduction and disclosure by the US Government is
 subject to restrictions as set forth in subparagraphs (a)
 and (c) of the Commercial Computer Software - Restricted
 Rights clause in FAR 52.227-19.
  
 Gaussian, Inc.
 340 Quinnipiac St., Bldg. 40, Wallingford CT 06492
  
  
 ---------------------------------------------------------------
 Warning -- This program may not be used in any manner that
 competes with the business of Gaussian, Inc. or will provide
 assistance to any competitor of Gaussian, Inc.  The licensee
 of this program is prohibited from giving any competitor of
 Gaussian, Inc. access to this program.  By using this program,
 the user acknowledges that Gaussian, Inc. is engaged in the
 business of creating and licensing software in the field of
 computational chemistry and represents and warrants to the
 licensee that it is not a competitor of Gaussian, Inc. and that
 it will not use this program in any manner prohibited above.
 ---------------------------------------------------------------
  

 Cite this work as:
 Gaussian 09, Revision C.01,
 M. J. Frisch, G. W. Trucks, H. B. Schlegel, G. E. Scuseria, 
 M. A. Robb, J. R. Cheeseman, G. Scalmani, V. Barone, B. Mennucci, 
 G. A. Petersson, H. Nakatsuji, M. Caricato, X. Li, H. P. Hratchian, 
 A. F. Izmaylov, J. Bloino, G. Zheng, J. L. Sonnenberg, M. Hada, 
 M. Ehara, K. Toyota, R. Fukuda, J. Hasegawa, M. Ishida, T. Nakajima, 
 Y. Honda, O. Kitao, H. Nakai, T. Vreven, J. A. Montgomery, Jr., 
 J. E. Peralta, F. Ogliaro, M. Bearpark, J. J. Heyd, E. Brothers, 
 K. N. Kudin, V. N. Staroverov, T. Keith, R. Kobayashi, J. Normand, 
 K. Raghavachari, A. Rendell, J. C. Burant, S. S. Iyengar, J. Tomasi, 
 M. Cossi, N. Rega, J. M. Millam, M. Klene, J. E. Knox, J. B. Cross, 
 V. Bakken, C. Adamo, J. Jaramillo, R. Gomperts, R. E. Stratmann, 
 O. Yazyev, A. J. Austin, R. Cammi, C. Pomelli, J. W. Ochterski, 
 R. L. Martin, K. Morokuma, V. G. Zakrzewski, G. A. Voth, 
 P. Salvador, J. J. Dannenberg, S. Dapprich, A. D. Daniels, 
 O. Farkas, J. B. Foresman, J. V. Ortiz, J. Cioslowski, 
 and D. J. Fox, Gaussian, Inc., Wallingford CT, 2010.
 
 ******************************************
 Gaussian 09:  EM64L-G09RevC.01 23-Sep-2011
                29-Jun-2018 
 ******************************************
 %nproc=2
 Will use up to    2 processors via shared memory.
 %mem=256MB
 %RWF=d23.rwf
 %chk=d2364
 %NoSave
 --------------------------------------
 #SP PBE1PBE/Def2TZVP geom=connectivity
 --------------------------------------
 1/38=1,57=2/1;
 2/12=2,17=6,18=5,40=1/2;
 3/5=44,7=101,11=2,16=1,25=1,30=1,74=-13/1,2,3;
 4//1;
 5/5=2,38=5/2;
 6/7=2,8=2,9=2,10=2,28=1/1;
 99/5=1,9=1/99;
 -------------
 Structure: 64
 -------------
 Charge =  0 Multiplicity = 1
 Symbolic Z-Matrix:
 H                     0.        0.        0. 
 C                     1.093     0.        0. 
 C                     1.655     1.421     0. 
 H                     1.41     -0.56     -0.885 
 H                     1.424    -0.557     0.88 
 H                     1.308     1.969    -0.883 
 Si                    3.513     1.515     0.035 
 H                     1.282     1.975     0.868 
 O                     4.103     2.013     1.492 
 O                     3.93      2.543    -1.176 
 H                     4.169     0.198    -0.168 
 H                     3.765     2.837     1.848 
 C                     5.261     2.827    -1.537 
 H                     5.249     3.479    -2.413 
 H                     5.811     1.913    -1.794 
 H                     5.797     3.336    -0.73 
 
                          Input orientation:                          
 ---------------------------------------------------------------------
 Center     Atomic      Atomic             Coordinates (Angstroms)
 Number     Number       Type             X           Y           Z
 ---------------------------------------------------------------------
      1          1           0        0.000000    0.000000    0.000000
      2          6           0        1.093000    0.000000    0.000000
      3          6           0        1.655000    1.421000    0.000000
      4          1           0        1.410000   -0.560000   -0.885000
      5          1           0        1.424000   -0.557000    0.880000
      6          1           0        1.308000    1.969000   -0.883000
      7         14           0        3.513000    1.515000    0.035000
      8          1           0        1.282000    1.975000    0.868000
      9          8           0        4.103000    2.013000    1.492000
     10          8           0        3.930000    2.543000   -1.176000
     11          1           0        4.169000    0.198000   -0.168000
     12          1           0        3.765000    2.837000    1.848000
     13          6           0        5.261000    2.827000   -1.537000
     14          1           0        5.249000    3.479000   -2.413000
     15          1           0        5.811000    1.913000   -1.794000
     16          1           0        5.797000    3.336000   -0.730000
 ---------------------------------------------------------------------
                    Distance matrix (angstroms):
                    1          2          3          4          5
     1  H    0.000000
     2  C    1.093000   0.000000
     3  C    2.181345   1.528098   0.000000
     4  H    1.756395   1.094218   2.183486   0.000000
     5  H    1.764207   1.092799   2.177210   1.765058   0.000000
     6  H    2.523393   2.168611   1.095629   2.531057   3.082580
     7  Si   3.825914   2.855320   1.860706   3.094291   3.061230
     8  H    2.509497   2.165588   1.095203   3.084740   2.536007
     9  O    4.807582   3.916418   2.927325   4.418451   3.762510
    10  O    4.826461   3.987279   2.795977   4.007953   4.485217
    11  H    4.177079   3.086941   2.800741   2.949701   3.033703
    12  H    5.063487   4.313149   3.142015   4.955292   4.235155
    13  C    6.167043   5.265598   4.164426   5.169823   5.658261
    14  H    6.743739   5.932819   4.793200   5.778082   6.462489
    15  H    6.375400   5.397919   4.553332   5.129406   5.700609
    16  H    6.728076   5.812866   4.621287   5.869294   6.072123
                    6          7          8          9         10
     6  H    0.000000
     7  Si   2.431227   0.000000
     8  H    1.751203   2.425459   0.000000
     9  O    3.668049   1.648925   2.889440   0.000000
    10  O    2.700039   1.642314   3.393002   2.725629   0.000000
    11  H    3.439911   1.485272   3.544826   2.460525   2.563632
    12  H    3.774736   2.257910   2.805126   0.959143   3.042735
    13  C    4.097571   2.692217   4.726772   3.343412   1.408026
    14  H    4.489151   3.586600   5.363214   4.325679   2.036179
    15  H    4.594569   2.963857   5.253754   3.704735   2.077736
    16  H    4.695021   3.019590   4.979071   3.091480   2.076886
                   11         12         13         14         15
    11  H    0.000000
    12  H    3.345414   0.000000
    13  C    3.158839   3.700857   0.000000
    14  H    4.119634   4.557471   1.092073   0.000000
    15  H    2.877719   4.278324   1.097244   1.775207   0.000000
    16  H    3.579563   3.320257   1.094361   1.775737   1.776857
                   16
    16  H    0.000000
 Stoichiometry    C3H10O2Si
 Framework group  C1[X(C3H10O2Si)]
 Deg. of freedom    42
 Full point group                 C1      NOp   1
 Largest Abelian subgroup         C1      NOp   1
 Largest concise Abelian subgroup C1      NOp   1
                         Standard orientation:                         
 ---------------------------------------------------------------------
 Center     Atomic      Atomic             Coordinates (Angstroms)
 Number     Number       Type             X           Y           Z
 ---------------------------------------------------------------------
      1          1           0       -3.608606   -0.843538   -0.242021
      2          6           0       -2.712713   -0.552164    0.312168
      3          6           0       -1.530241   -0.301581   -0.622740
      4          1           0       -2.502991   -1.358029    1.022035
      5          1           0       -2.957368    0.342434    0.890138
      6          1           0       -1.302478   -1.203965   -1.200864
      7         14           0        0.031176    0.234037    0.235931
      8          1           0       -1.784411    0.472590   -1.354537
      9          8           0        0.381928    1.827103   -0.005043
     10          8           0        1.215841   -0.745915   -0.341525
     11          1           0       -0.046362    0.120403    1.714818
     12          1           0        0.429176    2.137615   -0.911302
     13          6           0        2.546671   -0.717949    0.117441
     14          1           0        3.099996   -1.516925   -0.380647
     15          1           0        2.601259   -0.883169    1.200800
     16          1           0        3.030870    0.236721   -0.110116
 ---------------------------------------------------------------------
 Rotational constants (GHZ):      4.7278512      1.6889318      1.3799767
 Standard basis: def2TZVP (5D, 7F)
 There are   252 symmetry adapted basis functions of A   symmetry.
 Integral buffers will be    131072 words long.
 Raffenetti 2 integral format.
 Two-electron integral symmetry is turned on.
   252 basis functions,   404 primitive gaussians,   282 cartesian basis functions
    29 alpha electrons       29 beta electrons
       nuclear repulsion energy       325.8952761201 Hartrees.
 NAtoms=   16 NActive=   16 NUniq=   16 SFac= 1.00D+00 NAtFMM=   60 NAOKFM=F Big=F
 One-electron integrals computed using PRISM.
   1 Symmetry operations used in ECPInt.
 ECPInt:  NShTT=    5886 NPrTT=   17754 LenC2=    5738 LenP2D=   13751.
 LDataN:  DoStor=T MaxTD1= 6 Len=  172
 NBasis=   252 RedAO= T  NBF=   252
 NBsUse=   252 1.00D-06 NBFU=   252
 Harris functional with IExCor= 1009 diagonalized for initial guess.
 ExpMin= 7.01D-02 ExpMax= 4.48D+04 ExpMxC= 1.53D+03 IAcc=2 IRadAn=         4 AccDes= 0.00D+00
 HarFok:  IExCor= 1009 AccDes= 0.00D+00 IRadAn=         4 IDoV= 1
 ScaDFX=  1.000000  1.000000  1.000000  1.000000
 FoFCou: FMM=F IPFlag=           0 FMFlag=      100000 FMFlg1=           0
         NFxFlg=           0 DoJE=T BraDBF=F KetDBF=T FulRan=T
         Omega=  0.000000  0.000000  1.000000  0.000000  0.000000 ICntrl=     500 IOpCl=  0
         NMat0=    1 NMatS0=    1 NMatT0=    0 NMatD0=    1 NMtDS0=    0 NMtDT0=    0
         I1Cent=           4 NGrid=           0.
 Petite list used in FoFCou.
 Initial guess orbital symmetries:
       Occupied  (A) (A) (A) (A) (A) (A) (A) (A) (A) (A) (A) (A)
                 (A) (A) (A) (A) (A) (A) (A) (A) (A) (A) (A) (A)
                 (A) (A) (A) (A) (A)
       Virtual   (A) (A) (A) (A) (A) (A) (A) (A) (A) (A) (A) (A)
                 (A) (A) (A) (A) (A) (A) (A) (A) (A) (A) (A) (A)
                 (A) (A) (A) (A) (A) (A) (A) (A) (A) (A) (A) (A)
                 (A) (A) (A) (A) (A) (A) (A) (A) (A) (A) (A) (A)
                 (A) (A) (A) (A) (A) (A) (A) (A) (A) (A) (A) (A)
                 (A) (A) (A) (A) (A) (A) (A) (A) (A) (A) (A) (A)
                 (A) (A) (A) (A) (A) (A) (A) (A) (A) (A) (A) (A)
                 (A) (A) (A) (A) (A) (A) (A) (A) (A) (A) (A) (A)
                 (A) (A) (A) (A) (A) (A) (A) (A) (A) (A) (A) (A)
                 (A) (A) (A) (A) (A) (A) (A) (A) (A) (A) (A) (A)
                 (A) (A) (A) (A) (A) (A) (A) (A) (A) (A) (A) (A)
                 (A) (A) (A) (A) (A) (A) (A) (A) (A) (A) (A) (A)
                 (A) (A) (A) (A) (A) (A) (A) (A) (A) (A) (A) (A)
                 (A) (A) (A) (A) (A) (A) (A) (A) (A) (A) (A) (A)
                 (A) (A) (A) (A) (A) (A) (A) (A) (A) (A) (A) (A)
                 (A) (A) (A) (A) (A) (A) (A) (A) (A) (A) (A) (A)
                 (A) (A) (A) (A) (A) (A) (A) (A) (A) (A) (A) (A)
                 (A) (A) (A) (A) (A) (A) (A) (A) (A) (A) (A) (A)
                 (A) (A) (A) (A) (A) (A) (A)
 The electronic state of the initial guess is 1-A.
 Requested convergence on RMS density matrix=1.00D-08 within 128 cycles.
 Requested convergence on MAX density matrix=1.00D-06.
 Requested convergence on             energy=1.00D-06.
 No special actions if energy rises.
 Integral accuracy reduced to 1.0D-05 until final iterations.
 Initial convergence to 1.0D-05 achieved.  Increase integral accuracy.
 SCF Done:  E(RPBE1PBE) =  -560.059321074     A.U. after   12 cycles
             Convg  =    0.6095D-08             -V/T =  2.0032

 **********************************************************************

            Population analysis using the SCF density.

 **********************************************************************

 Orbital symmetries:
       Occupied  (A) (A) (A) (A) (A) (A) (A) (A) (A) (A) (A) (A)
                 (A) (A) (A) (A) (A) (A) (A) (A) (A) (A) (A) (A)
                 (A) (A) (A) (A) (A)
       Virtual   (A) (A) (A) (A) (A) (A) (A) (A) (A) (A) (A) (A)
                 (A) (A) (A) (A) (A) (A) (A) (A) (A) (A) (A) (A)
                 (A) (A) (A) (A) (A) (A) (A) (A) (A) (A) (A) (A)
                 (A) (A) (A) (A) (A) (A) (A) (A) (A) (A) (A) (A)
                 (A) (A) (A) (A) (A) (A) (A) (A) (A) (A) (A) (A)
                 (A) (A) (A) (A) (A) (A) (A) (A) (A) (A) (A) (A)
                 (A) (A) (A) (A) (A) (A) (A) (A) (A) (A) (A) (A)
                 (A) (A) (A) (A) (A) (A) (A) (A) (A) (A) (A) (A)
                 (A) (A) (A) (A) (A) (A) (A) (A) (A) (A) (A) (A)
                 (A) (A) (A) (A) (A) (A) (A) (A) (A) (A) (A) (A)
                 (A) (A) (A) (A) (A) (A) (A) (A) (A) (A) (A) (A)
                 (A) (A) (A) (A) (A) (A) (A) (A) (A) (A) (A) (A)
                 (A) (A) (A) (A) (A) (A) (A) (A) (A) (A) (A) (A)
                 (A) (A) (A) (A) (A) (A) (A) (A) (A) (A) (A) (A)
                 (A) (A) (A) (A) (A) (A) (A) (A) (A) (A) (A) (A)
                 (A) (A) (A) (A) (A) (A) (A) (A) (A) (A) (A) (A)
                 (A) (A) (A) (A) (A) (A) (A) (A) (A) (A) (A) (A)
                 (A) (A) (A) (A) (A) (A) (A) (A) (A) (A) (A) (A)
                 (A) (A) (A) (A) (A) (A) (A)
 The electronic state is 1-A.
 Alpha  occ. eigenvalues --  -66.25387 -19.20238 -19.20033 -10.26430 -10.21498
 Alpha  occ. eigenvalues --  -10.20723  -5.33056  -3.66581  -3.66465  -3.66331
 Alpha  occ. eigenvalues --   -1.04449  -1.02274  -0.78051  -0.70575  -0.63697
 Alpha  occ. eigenvalues --   -0.56860  -0.51012  -0.46827  -0.46369  -0.45747
 Alpha  occ. eigenvalues --   -0.44539  -0.40199  -0.38524  -0.37753  -0.36336
 Alpha  occ. eigenvalues --   -0.35352  -0.31820  -0.30498  -0.29692
 Alpha virt. eigenvalues --    0.03166   0.04529   0.05614   0.07069   0.09857
 Alpha virt. eigenvalues --    0.10093   0.11598   0.11747   0.12577   0.12866
 Alpha virt. eigenvalues --    0.13496   0.14509   0.16206   0.17468   0.18994
 Alpha virt. eigenvalues --    0.22052   0.22339   0.24135   0.25332   0.25550
 Alpha virt. eigenvalues --    0.26602   0.27791   0.28793   0.30235   0.31598
 Alpha virt. eigenvalues --    0.35183   0.38336   0.38840   0.39773   0.40531
 Alpha virt. eigenvalues --    0.41715   0.42202   0.43372   0.44212   0.44680
 Alpha virt. eigenvalues --    0.45971   0.46795   0.48222   0.48962   0.50815
 Alpha virt. eigenvalues --    0.51907   0.53489   0.54296   0.56193   0.58957
 Alpha virt. eigenvalues --    0.60660   0.62215   0.65369   0.66985   0.68869
 Alpha virt. eigenvalues --    0.71741   0.73364   0.77066   0.79835   0.80190
 Alpha virt. eigenvalues --    0.83345   0.84943   0.87032   0.88066   0.90149
 Alpha virt. eigenvalues --    0.93880   0.94944   0.98778   0.99539   1.00905
 Alpha virt. eigenvalues --    1.04045   1.05825   1.07946   1.08355   1.09499
 Alpha virt. eigenvalues --    1.10828   1.13739   1.16080   1.22051   1.24299
 Alpha virt. eigenvalues --    1.25437   1.27462   1.31285   1.39183   1.40132
 Alpha virt. eigenvalues --    1.42774   1.46076   1.49194   1.49398   1.50651
 Alpha virt. eigenvalues --    1.53035   1.55062   1.55397   1.56455   1.57308
 Alpha virt. eigenvalues --    1.58900   1.60554   1.63208   1.65115   1.65884
 Alpha virt. eigenvalues --    1.68178   1.71269   1.75869   1.77858   1.79176
 Alpha virt. eigenvalues --    1.81781   1.82974   1.86398   1.88312   1.90779
 Alpha virt. eigenvalues --    1.93639   1.95298   1.97344   2.01126   2.03727
 Alpha virt. eigenvalues --    2.04669   2.08833   2.11144   2.11421   2.15050
 Alpha virt. eigenvalues --    2.17496   2.20714   2.24321   2.25262   2.30278
 Alpha virt. eigenvalues --    2.32215   2.32868   2.33750   2.35197   2.36401
 Alpha virt. eigenvalues --    2.36967   2.40385   2.42740   2.45830   2.48364
 Alpha virt. eigenvalues --    2.52648   2.53351   2.56069   2.56751   2.58494
 Alpha virt. eigenvalues --    2.59672   2.60834   2.66670   2.68230   2.69090
 Alpha virt. eigenvalues --    2.71124   2.73163   2.77599   2.83381   2.86342
 Alpha virt. eigenvalues --    2.87908   2.93426   2.96881   2.98766   3.02095
 Alpha virt. eigenvalues --    3.04262   3.09398   3.10119   3.11971   3.14701
 Alpha virt. eigenvalues --    3.20753   3.22656   3.24011   3.29304   3.31344
 Alpha virt. eigenvalues --    3.32770   3.33990   3.35495   3.38216   3.43852
 Alpha virt. eigenvalues --    3.45029   3.47493   3.50083   3.53412   3.54174
 Alpha virt. eigenvalues --    3.58393   3.61447   3.63386   3.65313   3.77035
 Alpha virt. eigenvalues --    3.81676   3.86739   3.92543   3.95680   4.01796
 Alpha virt. eigenvalues --    4.18945   4.24467   4.24908   4.34838   4.36876
 Alpha virt. eigenvalues --    4.41540   4.47064   4.54340   4.55120   4.79347
 Alpha virt. eigenvalues --    5.15661   5.16832   5.17824   5.18146   5.28115
 Alpha virt. eigenvalues --    5.28944   5.38704   5.41859   5.45258   5.49816
 Alpha virt. eigenvalues --    5.79939   5.86731   6.02281   6.22385   6.39098
 Alpha virt. eigenvalues --    6.41901   6.53357   6.58539   6.60122   6.66177
 Alpha virt. eigenvalues --    6.67768   6.79210   6.82252   6.98629   7.05822
 Alpha virt. eigenvalues --    7.15759   7.22659  11.88429  22.36515  22.40352
 Alpha virt. eigenvalues --   22.45371  43.61675  43.91270
          Condensed to atoms (all electrons):
              1          2          3          4          5          6
     1  H    0.562909   0.410714  -0.033600  -0.027611  -0.028588  -0.007240
     2  C    0.410714   4.899466   0.316017   0.412586   0.409267  -0.028606
     3  C   -0.033600   0.316017   5.086316  -0.038739  -0.040238   0.371760
     4  H   -0.027611   0.412586  -0.038739   0.554950  -0.024655  -0.004726
     5  H   -0.028588   0.409267  -0.040238  -0.024655   0.556020   0.007896
     6  H   -0.007240  -0.028606   0.371760  -0.004726   0.007896   0.561035
     7  Si   0.006101  -0.013624   0.403753  -0.008203  -0.005459  -0.013842
     8  H   -0.007891  -0.028275   0.372768   0.008064  -0.004069  -0.024214
     9  O   -0.000212  -0.000596  -0.044530  -0.000049   0.001003   0.001765
    10  O   -0.000112   0.001042  -0.035840   0.000140   0.000050   0.004413
    11  H    0.000102   0.006491  -0.047816   0.000873   0.001025   0.002616
    12  H    0.000015  -0.000216  -0.003498   0.000004   0.000003   0.000020
    13  C    0.000011  -0.000185   0.002842  -0.000038   0.000006   0.000411
    14  H   -0.000001   0.000003  -0.000041   0.000000   0.000000  -0.000124
    15  H    0.000003   0.000107  -0.000556   0.000017  -0.000003   0.000054
    16  H    0.000000  -0.000035   0.000510  -0.000001  -0.000001   0.000032
              7          8          9         10         11         12
     1  H    0.006101  -0.007891  -0.000212  -0.000112   0.000102   0.000015
     2  C   -0.013624  -0.028275  -0.000596   0.001042   0.006491  -0.000216
     3  C    0.403753   0.372768  -0.044530  -0.035840  -0.047816  -0.003498
     4  H   -0.008203   0.008064  -0.000049   0.000140   0.000873   0.000004
     5  H   -0.005459  -0.004069   0.001003   0.000050   0.001025   0.000003
     6  H   -0.013842  -0.024214   0.001765   0.004413   0.002616   0.000020
     7  Si  11.864951  -0.023781   0.479794   0.464852   0.391972  -0.026397
     8  H   -0.023781   0.598433   0.001215   0.001229   0.002220   0.002169
     9  O    0.479794   0.001215   7.845996  -0.034453  -0.018158   0.299200
    10  O    0.464852   0.001229  -0.034453   7.839214  -0.027872  -0.001275
    11  H    0.391972   0.002220  -0.018158  -0.027872   0.744475   0.004006
    12  H   -0.026397   0.002169   0.299200  -0.001275   0.004006   0.406208
    13  C   -0.051274  -0.000143  -0.007940   0.258408   0.001249   0.000792
    14  H    0.006868   0.000003   0.000063  -0.039754  -0.000269   0.000027
    15  H   -0.013766  -0.000015  -0.000751  -0.043839   0.010325  -0.000082
    16  H   -0.006825   0.000048   0.006786  -0.043525  -0.002006   0.000411
             13         14         15         16
     1  H    0.000011  -0.000001   0.000003   0.000000
     2  C   -0.000185   0.000003   0.000107  -0.000035
     3  C    0.002842  -0.000041  -0.000556   0.000510
     4  H   -0.000038   0.000000   0.000017  -0.000001
     5  H    0.000006   0.000000  -0.000003  -0.000001
     6  H    0.000411  -0.000124   0.000054   0.000032
     7  Si  -0.051274   0.006868  -0.013766  -0.006825
     8  H   -0.000143   0.000003  -0.000015   0.000048
     9  O   -0.007940   0.000063  -0.000751   0.006786
    10  O    0.258408  -0.039754  -0.043839  -0.043525
    11  H    0.001249  -0.000269   0.010325  -0.002006
    12  H    0.000792   0.000027  -0.000082   0.000411
    13  C    4.770845   0.401963   0.416758   0.413310
    14  H    0.401963   0.567169  -0.031232  -0.033231
    15  H    0.416758  -0.031232   0.592873  -0.047581
    16  H    0.413310  -0.033231  -0.047581   0.592050
 Mulliken atomic charges:
              1
     1  H    0.125401
     2  C   -0.384157
     3  C   -0.309107
     4  H    0.127389
     5  H    0.127742
     6  H    0.128750
     7  Si   0.544880
     8  H    0.102241
     9  O   -0.529132
    10  O   -0.342678
    11  H   -0.069232
    12  H    0.318613
    13  C   -0.207013
    14  H    0.128556
    15  H    0.117688
    16  H    0.120057
 Sum of Mulliken atomic charges =   0.00000
 Mulliken charges with hydrogens summed into heavy atoms:
              1
     2  C   -0.003624
     3  C   -0.078115
     7  Si   0.475649
     9  O   -0.210518
    10  O   -0.342678
    13  C    0.159287
 Sum of Mulliken charges with hydrogens summed into heavy atoms =   0.00000
 Electronic spatial extent (au):  <R**2>=            932.3325
 Charge=              0.0000 electrons
 Dipole moment (field-independent basis, Debye):
    X=              0.1623    Y=             -0.0437    Z=             -1.1092  Tot=              1.1219
 Quadrupole moment (field-independent basis, Debye-Ang):
   XX=            -41.5139   YY=            -46.3393   ZZ=            -44.6491
   XY=             -0.4481   XZ=              0.4703   YZ=             -4.2763
 Traceless Quadrupole moment (field-independent basis, Debye-Ang):
   XX=              2.6536   YY=             -2.1719   ZZ=             -0.4817
   XY=             -0.4481   XZ=              0.4703   YZ=             -4.2763
 Octapole moment (field-independent basis, Debye-Ang**2):
  XXX=             19.4552  YYY=              3.0725  ZZZ=             -6.7882  XYY=              2.3768
  XXY=             -1.4647  XXZ=             -1.2555  XZZ=              3.2469  YZZ=              5.3517
  YYZ=             -9.4535  XYZ=             -2.5250
 Hexadecapole moment (field-independent basis, Debye-Ang**3):
 XXXX=           -844.4506 YYYY=           -259.4226 ZZZZ=           -130.4660 XXXY=            -12.7738
 XXXZ=              2.2355 YYYX=             -2.2444 YYYZ=            -20.0748 ZZZX=             -0.0960
 ZZZY=             -6.6489 XXYY=           -182.9713 XXZZ=           -166.5637 YYZZ=            -54.5788
 XXYZ=              0.5789 YYXZ=             -5.6751 ZZXY=              0.0575
 N-N= 3.258952761201D+02 E-N=-1.975815645413D+03  KE= 5.582503484276D+02
 1\1\GINC-TARSUS2\SP\RPBE1PBE\def2TZVP\C3H10O2Si1\RENATO\29-Jun-2018\0\
 \#SP PBE1PBE/Def2TZVP geom=connectivity\\Structure: 64\\0,1\H,0,0.,0.,
 0.\C,0,1.093,0.,0.\C,0,1.655,1.421,0.\H,0,1.41,-0.56,-0.885\H,0,1.424,
 -0.557,0.88\H,0,1.308,1.969,-0.883\Si,0,3.513,1.515,0.035\H,0,1.282,1.
 975,0.868\O,0,4.103,2.013,1.492\O,0,3.93,2.543,-1.176\H,0,4.169,0.198,
 -0.168\H,0,3.765,2.837,1.848\C,0,5.261,2.827,-1.537\H,0,5.249,3.479,-2
 .413\H,0,5.811,1.913,-1.794\H,0,5.797,3.336,-0.73\\Version=EM64L-G09Re
 vC.01\State=1-A\HF=-560.0593211\RMSD=6.095e-09\Dipole=-0.1735164,0.405
 8443,0.000304\Quadrupole=0.4041959,0.2951399,-0.6993358,1.3395927,-2.6
 199612,2.1509558\PG=C01 [X(C3H10O2Si1)]\\@


 EVERYTHING'S GOT A MORAL, IF ONLY YOU CAN FIND IT.

                                    -- LEWIS CARROL, ALICE IN WONDERLAND
 Job cpu time:  0 days  0 hours  7 minutes 51.7 seconds.
 File lengths (MBytes):  RWF=     40 Int=      0 D2E=      0 Chk=      3 Scr=      1
 Normal termination of Gaussian 09 at Fri Jun 29 14:31:52 2018.
