 Entering Gaussian System, Link 0=g09
 Initial command:
 /usr/local/gaussian09/g09/l1.exe /scratch/renato/Gau-30446.inp -scrdir=/scratch/renato/
 Entering Link 1 = /usr/local/gaussian09/g09/l1.exe PID=     30448.
  
 Copyright (c) 1988,1990,1992,1993,1995,1998,2003,2009,2011,
            Gaussian, Inc.  All Rights Reserved.
  
 This is part of the Gaussian(R) 09 program.  It is based on
 the Gaussian(R) 03 system (copyright 2003, Gaussian, Inc.),
 the Gaussian(R) 98 system (copyright 1998, Gaussian, Inc.),
 the Gaussian(R) 94 system (copyright 1995, Gaussian, Inc.),
 the Gaussian 92(TM) system (copyright 1992, Gaussian, Inc.),
 the Gaussian 90(TM) system (copyright 1990, Gaussian, Inc.),
 the Gaussian 88(TM) system (copyright 1988, Gaussian, Inc.),
 the Gaussian 86(TM) system (copyright 1986, Carnegie Mellon
 University), and the Gaussian 82(TM) system (copyright 1983,
 Carnegie Mellon University). Gaussian is a federally registered
 trademark of Gaussian, Inc.
  
 This software contains proprietary and confidential information,
 including trade secrets, belonging to Gaussian, Inc.
  
 This software is provided under written license and may be
 used, copied, transmitted, or stored only in accord with that
 written license.
  
 The following legend is applicable only to US Government
 contracts under FAR:
  
                    RESTRICTED RIGHTS LEGEND
  
 Use, reproduction and disclosure by the US Government is
 subject to restrictions as set forth in subparagraphs (a)
 and (c) of the Commercial Computer Software - Restricted
 Rights clause in FAR 52.227-19.
  
 Gaussian, Inc.
 340 Quinnipiac St., Bldg. 40, Wallingford CT 06492
  
  
 ---------------------------------------------------------------
 Warning -- This program may not be used in any manner that
 competes with the business of Gaussian, Inc. or will provide
 assistance to any competitor of Gaussian, Inc.  The licensee
 of this program is prohibited from giving any competitor of
 Gaussian, Inc. access to this program.  By using this program,
 the user acknowledges that Gaussian, Inc. is engaged in the
 business of creating and licensing software in the field of
 computational chemistry and represents and warrants to the
 licensee that it is not a competitor of Gaussian, Inc. and that
 it will not use this program in any manner prohibited above.
 ---------------------------------------------------------------
  

 Cite this work as:
 Gaussian 09, Revision C.01,
 M. J. Frisch, G. W. Trucks, H. B. Schlegel, G. E. Scuseria, 
 M. A. Robb, J. R. Cheeseman, G. Scalmani, V. Barone, B. Mennucci, 
 G. A. Petersson, H. Nakatsuji, M. Caricato, X. Li, H. P. Hratchian, 
 A. F. Izmaylov, J. Bloino, G. Zheng, J. L. Sonnenberg, M. Hada, 
 M. Ehara, K. Toyota, R. Fukuda, J. Hasegawa, M. Ishida, T. Nakajima, 
 Y. Honda, O. Kitao, H. Nakai, T. Vreven, J. A. Montgomery, Jr., 
 J. E. Peralta, F. Ogliaro, M. Bearpark, J. J. Heyd, E. Brothers, 
 K. N. Kudin, V. N. Staroverov, T. Keith, R. Kobayashi, J. Normand, 
 K. Raghavachari, A. Rendell, J. C. Burant, S. S. Iyengar, J. Tomasi, 
 M. Cossi, N. Rega, J. M. Millam, M. Klene, J. E. Knox, J. B. Cross, 
 V. Bakken, C. Adamo, J. Jaramillo, R. Gomperts, R. E. Stratmann, 
 O. Yazyev, A. J. Austin, R. Cammi, C. Pomelli, J. W. Ochterski, 
 R. L. Martin, K. Morokuma, V. G. Zakrzewski, G. A. Voth, 
 P. Salvador, J. J. Dannenberg, S. Dapprich, A. D. Daniels, 
 O. Farkas, J. B. Foresman, J. V. Ortiz, J. Cioslowski, 
 and D. J. Fox, Gaussian, Inc., Wallingford CT, 2010.
 
 ******************************************
 Gaussian 09:  EM64L-G09RevC.01 23-Sep-2011
                29-Jun-2018 
 ******************************************
 %nproc=2
 Will use up to    2 processors via shared memory.
 %mem=256MB
 %RWF=d23.rwf
 %chk=d2362
 %NoSave
 --------------------------------------
 #SP PBE1PBE/Def2TZVP geom=connectivity
 --------------------------------------
 1/38=1,57=2/1;
 2/12=2,17=6,18=5,40=1/2;
 3/5=44,7=101,11=2,16=1,25=1,30=1,74=-13/1,2,3;
 4//1;
 5/5=2,38=5/2;
 6/7=2,8=2,9=2,10=2,28=1/1;
 99/5=1,9=1/99;
 -------------
 Structure: 62
 -------------
 Charge =  0 Multiplicity = 1
 Symbolic Z-Matrix:
 H                     0.        0.        0. 
 C                     1.093     0.        0. 
 C                     1.655     1.421     0. 
 H                     1.41     -0.56     -0.885 
 H                     1.424    -0.557     0.88 
 H                     1.308     1.969    -0.883 
 Si                    3.513     1.515     0.035 
 H                     1.282     1.975     0.868 
 O                     4.098     2.113     1.456 
 O                     3.936     2.456    -1.243 
 H                     4.168     0.186    -0.074 
 H                     3.761     2.959     1.753 
 C                     5.269     2.712    -1.619 
 H                     5.26      3.302    -2.538 
 H                     5.817     1.782    -1.809 
 H                     5.802     3.275    -0.846 
 
                          Input orientation:                          
 ---------------------------------------------------------------------
 Center     Atomic      Atomic             Coordinates (Angstroms)
 Number     Number       Type             X           Y           Z
 ---------------------------------------------------------------------
      1          1           0        0.000000    0.000000    0.000000
      2          6           0        1.093000    0.000000    0.000000
      3          6           0        1.655000    1.421000    0.000000
      4          1           0        1.410000   -0.560000   -0.885000
      5          1           0        1.424000   -0.557000    0.880000
      6          1           0        1.308000    1.969000   -0.883000
      7         14           0        3.513000    1.515000    0.035000
      8          1           0        1.282000    1.975000    0.868000
      9          8           0        4.098000    2.113000    1.456000
     10          8           0        3.936000    2.456000   -1.243000
     11          1           0        4.168000    0.186000   -0.074000
     12          1           0        3.761000    2.959000    1.753000
     13          6           0        5.269000    2.712000   -1.619000
     14          1           0        5.260000    3.302000   -2.538000
     15          1           0        5.817000    1.782000   -1.809000
     16          1           0        5.802000    3.275000   -0.846000
 ---------------------------------------------------------------------
                    Distance matrix (angstroms):
                    1          2          3          4          5
     1  H    0.000000
     2  C    1.093000   0.000000
     3  C    2.181345   1.528098   0.000000
     4  H    1.756395   1.094218   2.183486   0.000000
     5  H    1.764207   1.092799   2.177210   1.765058   0.000000
     6  H    2.523393   2.168611   1.095629   2.531057   3.082580
     7  Si   3.825914   2.855320   1.860706   3.094291   3.061230
     8  H    2.509497   2.165588   1.095203   3.084740   2.536007
     9  O    4.835112   3.951548   2.926952   4.455396   3.822428
    10  O    4.803028   3.957226   2.796290   3.950329   4.460431
    11  H    4.172804   3.081509   2.801048   2.969983   2.998617
    12  H    5.096451   4.352805   3.142243   4.986944   4.311143
    13  C    6.143164   5.235941   4.165194   5.112399   5.631642
    14  H    6.709117   5.891395   4.793290   5.698241   6.425691
    15  H    6.347085   5.363225   4.552477   5.075469   5.656862
    16  H    6.715992   5.797933   4.620675   5.830816   6.068788
                    6          7          8          9         10
     6  H    0.000000
     7  Si   2.431227   0.000000
     8  H    1.751203   2.425459   0.000000
     9  O    3.643591   1.648960   2.880042   0.000000
    10  O    2.696878   1.642466   3.425113   2.725526   0.000000
    11  H    3.466002   1.485647   3.523759   2.461530   2.563842
    12  H    3.734408   2.257911   2.810146   0.957859   3.042967
    13  C    4.096738   2.692965   4.756523   3.344498   1.408475
    14  H    4.487117   3.586880   5.402430   4.326199   2.036103
    15  H    4.606900   2.963113   5.269706   3.704693   2.076727
    16  H    4.680068   3.018821   5.005816   3.090803   2.076132
                   11         12         13         14         15
    11  H    0.000000
    12  H    3.345610   0.000000
    13  C    3.159098   3.702088   0.000000
    14  H    4.119856   4.558216   1.092127   0.000000
    15  H    2.876915   4.277886   1.096040   1.775413   0.000000
    16  H    3.578807   3.319689   1.094800   1.776895   1.776694
                   16
    16  H    0.000000
 Stoichiometry    C3H10O2Si
 Framework group  C1[X(C3H10O2Si)]
 Deg. of freedom    42
 Full point group                 C1      NOp   1
 Largest Abelian subgroup         C1      NOp   1
 Largest concise Abelian subgroup C1      NOp   1
                         Standard orientation:                         
 ---------------------------------------------------------------------
 Center     Atomic      Atomic             Coordinates (Angstroms)
 Number     Number       Type             X           Y           Z
 ---------------------------------------------------------------------
      1          1           0       -3.602584   -0.849777   -0.245919
      2          6           0       -2.699968   -0.584209    0.310326
      3          6           0       -1.539459   -0.252560   -0.626857
      4          1           0       -2.465695   -1.433910    0.958737
      5          1           0       -2.945137    0.264776    0.953231
      6          1           0       -1.311077   -1.109549   -1.270141
      7         14           0        0.031207    0.245396    0.237594
      8          1           0       -1.818175    0.566387   -1.298506
      9          8           0        0.410885    1.834179    0.012462
     10          8           0        1.198280   -0.749853   -0.349869
     11          1           0       -0.048786    0.117406    1.715554
     12          1           0        0.464323    2.153650   -0.888968
     13          6           0        2.529463   -0.751885    0.110292
     14          1           0        3.067598   -1.555552   -0.396927
     15          1           0        2.579251   -0.928873    1.190801
     16          1           0        3.029853    0.197204   -0.107486
 ---------------------------------------------------------------------
 Rotational constants (GHZ):      4.6500928      1.7014098      1.3822908
 Standard basis: def2TZVP (5D, 7F)
 There are   252 symmetry adapted basis functions of A   symmetry.
 Integral buffers will be    131072 words long.
 Raffenetti 2 integral format.
 Two-electron integral symmetry is turned on.
   252 basis functions,   404 primitive gaussians,   282 cartesian basis functions
    29 alpha electrons       29 beta electrons
       nuclear repulsion energy       325.9080330203 Hartrees.
 NAtoms=   16 NActive=   16 NUniq=   16 SFac= 1.00D+00 NAtFMM=   60 NAOKFM=F Big=F
 One-electron integrals computed using PRISM.
   1 Symmetry operations used in ECPInt.
 ECPInt:  NShTT=    5886 NPrTT=   17754 LenC2=    5739 LenP2D=   13752.
 LDataN:  DoStor=T MaxTD1= 6 Len=  172
 NBasis=   252 RedAO= T  NBF=   252
 NBsUse=   252 1.00D-06 NBFU=   252
 Harris functional with IExCor= 1009 diagonalized for initial guess.
 ExpMin= 7.01D-02 ExpMax= 4.48D+04 ExpMxC= 1.53D+03 IAcc=2 IRadAn=         4 AccDes= 0.00D+00
 HarFok:  IExCor= 1009 AccDes= 0.00D+00 IRadAn=         4 IDoV= 1
 ScaDFX=  1.000000  1.000000  1.000000  1.000000
 FoFCou: FMM=F IPFlag=           0 FMFlag=      100000 FMFlg1=           0
         NFxFlg=           0 DoJE=T BraDBF=F KetDBF=T FulRan=T
         Omega=  0.000000  0.000000  1.000000  0.000000  0.000000 ICntrl=     500 IOpCl=  0
         NMat0=    1 NMatS0=    1 NMatT0=    0 NMatD0=    1 NMtDS0=    0 NMtDT0=    0
         I1Cent=           4 NGrid=           0.
 Petite list used in FoFCou.
 Initial guess orbital symmetries:
       Occupied  (A) (A) (A) (A) (A) (A) (A) (A) (A) (A) (A) (A)
                 (A) (A) (A) (A) (A) (A) (A) (A) (A) (A) (A) (A)
                 (A) (A) (A) (A) (A)
       Virtual   (A) (A) (A) (A) (A) (A) (A) (A) (A) (A) (A) (A)
                 (A) (A) (A) (A) (A) (A) (A) (A) (A) (A) (A) (A)
                 (A) (A) (A) (A) (A) (A) (A) (A) (A) (A) (A) (A)
                 (A) (A) (A) (A) (A) (A) (A) (A) (A) (A) (A) (A)
                 (A) (A) (A) (A) (A) (A) (A) (A) (A) (A) (A) (A)
                 (A) (A) (A) (A) (A) (A) (A) (A) (A) (A) (A) (A)
                 (A) (A) (A) (A) (A) (A) (A) (A) (A) (A) (A) (A)
                 (A) (A) (A) (A) (A) (A) (A) (A) (A) (A) (A) (A)
                 (A) (A) (A) (A) (A) (A) (A) (A) (A) (A) (A) (A)
                 (A) (A) (A) (A) (A) (A) (A) (A) (A) (A) (A) (A)
                 (A) (A) (A) (A) (A) (A) (A) (A) (A) (A) (A) (A)
                 (A) (A) (A) (A) (A) (A) (A) (A) (A) (A) (A) (A)
                 (A) (A) (A) (A) (A) (A) (A) (A) (A) (A) (A) (A)
                 (A) (A) (A) (A) (A) (A) (A) (A) (A) (A) (A) (A)
                 (A) (A) (A) (A) (A) (A) (A) (A) (A) (A) (A) (A)
                 (A) (A) (A) (A) (A) (A) (A) (A) (A) (A) (A) (A)
                 (A) (A) (A) (A) (A) (A) (A) (A) (A) (A) (A) (A)
                 (A) (A) (A) (A) (A) (A) (A) (A) (A) (A) (A) (A)
                 (A) (A) (A) (A) (A) (A) (A)
 The electronic state of the initial guess is 1-A.
 Requested convergence on RMS density matrix=1.00D-08 within 128 cycles.
 Requested convergence on MAX density matrix=1.00D-06.
 Requested convergence on             energy=1.00D-06.
 No special actions if energy rises.
 Integral accuracy reduced to 1.0D-05 until final iterations.
 Initial convergence to 1.0D-05 achieved.  Increase integral accuracy.
 SCF Done:  E(RPBE1PBE) =  -560.059236013     A.U. after   12 cycles
             Convg  =    0.5589D-08             -V/T =  2.0032

 **********************************************************************

            Population analysis using the SCF density.

 **********************************************************************

 Orbital symmetries:
       Occupied  (A) (A) (A) (A) (A) (A) (A) (A) (A) (A) (A) (A)
                 (A) (A) (A) (A) (A) (A) (A) (A) (A) (A) (A) (A)
                 (A) (A) (A) (A) (A)
       Virtual   (A) (A) (A) (A) (A) (A) (A) (A) (A) (A) (A) (A)
                 (A) (A) (A) (A) (A) (A) (A) (A) (A) (A) (A) (A)
                 (A) (A) (A) (A) (A) (A) (A) (A) (A) (A) (A) (A)
                 (A) (A) (A) (A) (A) (A) (A) (A) (A) (A) (A) (A)
                 (A) (A) (A) (A) (A) (A) (A) (A) (A) (A) (A) (A)
                 (A) (A) (A) (A) (A) (A) (A) (A) (A) (A) (A) (A)
                 (A) (A) (A) (A) (A) (A) (A) (A) (A) (A) (A) (A)
                 (A) (A) (A) (A) (A) (A) (A) (A) (A) (A) (A) (A)
                 (A) (A) (A) (A) (A) (A) (A) (A) (A) (A) (A) (A)
                 (A) (A) (A) (A) (A) (A) (A) (A) (A) (A) (A) (A)
                 (A) (A) (A) (A) (A) (A) (A) (A) (A) (A) (A) (A)
                 (A) (A) (A) (A) (A) (A) (A) (A) (A) (A) (A) (A)
                 (A) (A) (A) (A) (A) (A) (A) (A) (A) (A) (A) (A)
                 (A) (A) (A) (A) (A) (A) (A) (A) (A) (A) (A) (A)
                 (A) (A) (A) (A) (A) (A) (A) (A) (A) (A) (A) (A)
                 (A) (A) (A) (A) (A) (A) (A) (A) (A) (A) (A) (A)
                 (A) (A) (A) (A) (A) (A) (A) (A) (A) (A) (A) (A)
                 (A) (A) (A) (A) (A) (A) (A) (A) (A) (A) (A) (A)
                 (A) (A) (A) (A) (A) (A) (A)
 The electronic state is 1-A.
 Alpha  occ. eigenvalues --  -66.25390 -19.20216 -19.20026 -10.26426 -10.21497
 Alpha  occ. eigenvalues --  -10.20711  -5.33058  -3.66583  -3.66467  -3.66333
 Alpha  occ. eigenvalues --   -1.04439  -1.02284  -0.78046  -0.70574  -0.63698
 Alpha  occ. eigenvalues --   -0.56874  -0.51020  -0.46819  -0.46392  -0.45732
 Alpha  occ. eigenvalues --   -0.44490  -0.40244  -0.38519  -0.37730  -0.36348
 Alpha  occ. eigenvalues --   -0.35325  -0.31816  -0.30491  -0.29696
 Alpha virt. eigenvalues --    0.03188   0.04538   0.05575   0.07096   0.09841
 Alpha virt. eigenvalues --    0.10137   0.11547   0.11692   0.12536   0.12910
 Alpha virt. eigenvalues --    0.13540   0.14481   0.16198   0.17497   0.19013
 Alpha virt. eigenvalues --    0.21995   0.22298   0.24190   0.25326   0.25510
 Alpha virt. eigenvalues --    0.26884   0.27774   0.28735   0.30330   0.31346
 Alpha virt. eigenvalues --    0.35450   0.38236   0.38823   0.39775   0.40692
 Alpha virt. eigenvalues --    0.41591   0.42196   0.43372   0.44237   0.44707
 Alpha virt. eigenvalues --    0.45936   0.46827   0.48273   0.48956   0.50615
 Alpha virt. eigenvalues --    0.52058   0.53468   0.54353   0.56108   0.58979
 Alpha virt. eigenvalues --    0.60560   0.61810   0.65615   0.66894   0.68939
 Alpha virt. eigenvalues --    0.71707   0.73387   0.77330   0.79848   0.80021
 Alpha virt. eigenvalues --    0.83741   0.84697   0.87320   0.87998   0.90174
 Alpha virt. eigenvalues --    0.93821   0.95176   0.98587   0.99460   1.00727
 Alpha virt. eigenvalues --    1.03775   1.05848   1.08139   1.08485   1.09377
 Alpha virt. eigenvalues --    1.10988   1.13763   1.16189   1.21910   1.23748
 Alpha virt. eigenvalues --    1.25572   1.27536   1.31298   1.39017   1.39998
 Alpha virt. eigenvalues --    1.42797   1.46261   1.49131   1.49669   1.50664
 Alpha virt. eigenvalues --    1.52997   1.54972   1.55299   1.56488   1.57329
 Alpha virt. eigenvalues --    1.58755   1.60627   1.63158   1.65146   1.66147
 Alpha virt. eigenvalues --    1.68368   1.71136   1.76152   1.77653   1.79172
 Alpha virt. eigenvalues --    1.81839   1.83097   1.86288   1.88198   1.90934
 Alpha virt. eigenvalues --    1.93315   1.95512   1.97203   2.00967   2.03771
 Alpha virt. eigenvalues --    2.04902   2.08606   2.10921   2.11877   2.15016
 Alpha virt. eigenvalues --    2.17552   2.20816   2.24542   2.25115   2.30149
 Alpha virt. eigenvalues --    2.31992   2.32826   2.33829   2.35114   2.36360
 Alpha virt. eigenvalues --    2.37002   2.40420   2.42870   2.45873   2.48262
 Alpha virt. eigenvalues --    2.52566   2.53331   2.56324   2.56752   2.58588
 Alpha virt. eigenvalues --    2.59615   2.61153   2.66605   2.67855   2.69104
 Alpha virt. eigenvalues --    2.71200   2.73383   2.77520   2.83474   2.86272
 Alpha virt. eigenvalues --    2.87472   2.93884   2.96346   2.98697   3.02054
 Alpha virt. eigenvalues --    3.04457   3.09456   3.10215   3.11808   3.14638
 Alpha virt. eigenvalues --    3.20977   3.22488   3.24124   3.29401   3.31452
 Alpha virt. eigenvalues --    3.32928   3.34113   3.35743   3.37793   3.43927
 Alpha virt. eigenvalues --    3.45115   3.47738   3.49634   3.53254   3.54162
 Alpha virt. eigenvalues --    3.58406   3.61835   3.63320   3.64843   3.77058
 Alpha virt. eigenvalues --    3.81697   3.87075   3.92538   3.95602   4.01744
 Alpha virt. eigenvalues --    4.19000   4.24413   4.24923   4.34801   4.37029
 Alpha virt. eigenvalues --    4.41528   4.47083   4.54232   4.55074   4.79441
 Alpha virt. eigenvalues --    5.15679   5.16804   5.17826   5.18170   5.28115
 Alpha virt. eigenvalues --    5.28965   5.38658   5.41850   5.45364   5.49904
 Alpha virt. eigenvalues --    5.79859   5.86666   6.02270   6.22836   6.39278
 Alpha virt. eigenvalues --    6.41896   6.53353   6.58651   6.60100   6.66192
 Alpha virt. eigenvalues --    6.67778   6.79239   6.82223   6.98652   7.05916
 Alpha virt. eigenvalues --    7.15784   7.22672  11.88342  22.36493  22.40418
 Alpha virt. eigenvalues --   22.45367  43.61375  43.91373
          Condensed to atoms (all electrons):
              1          2          3          4          5          6
     1  H    0.563369   0.410118  -0.033160  -0.027646  -0.028532  -0.007166
     2  C    0.410118   4.898468   0.315516   0.412762   0.409490  -0.028084
     3  C   -0.033160   0.315516   5.089110  -0.039113  -0.040169   0.372219
     4  H   -0.027646   0.412762  -0.039113   0.555114  -0.024728  -0.004752
     5  H   -0.028532   0.409490  -0.040169  -0.024728   0.556184   0.007827
     6  H   -0.007166  -0.028084   0.372219  -0.004752   0.007827   0.560953
     7  Si   0.005962  -0.012495   0.402819  -0.008061  -0.005622  -0.014213
     8  H   -0.007987  -0.027621   0.372455   0.008102  -0.004106  -0.024683
     9  O   -0.000208  -0.000175  -0.044947  -0.000039   0.000839   0.001624
    10  O   -0.000118   0.000933  -0.035830   0.000192   0.000046   0.004374
    11  H    0.000108   0.006206  -0.047676   0.000727   0.001149   0.002715
    12  H    0.000014  -0.000206  -0.003427   0.000002   0.000007   0.000032
    13  C    0.000012  -0.000185   0.002905  -0.000047   0.000008   0.000441
    14  H   -0.000001   0.000008  -0.000051  -0.000001   0.000000  -0.000121
    15  H    0.000003   0.000111  -0.000608   0.000017  -0.000002   0.000071
    16  H    0.000000  -0.000041   0.000544   0.000000  -0.000001   0.000019
              7          8          9         10         11         12
     1  H    0.005962  -0.007987  -0.000208  -0.000118   0.000108   0.000014
     2  C   -0.012495  -0.027621  -0.000175   0.000933   0.006206  -0.000206
     3  C    0.402819   0.372455  -0.044947  -0.035830  -0.047676  -0.003427
     4  H   -0.008061   0.008102  -0.000039   0.000192   0.000727   0.000002
     5  H   -0.005622  -0.004106   0.000839   0.000046   0.001149   0.000007
     6  H   -0.014213  -0.024683   0.001624   0.004374   0.002715   0.000032
     7  Si  11.864119  -0.024353   0.479944   0.465382   0.391972  -0.026430
     8  H   -0.024353   0.598340   0.001347   0.001329   0.002168   0.002040
     9  O    0.479944   0.001347   7.845865  -0.034674  -0.018191   0.299423
    10  O    0.465382   0.001329  -0.034674   7.839643  -0.027936  -0.001307
    11  H    0.391972   0.002168  -0.018191  -0.027936   0.744267   0.003980
    12  H   -0.026430   0.002040   0.299423  -0.001307   0.003980   0.406323
    13  C   -0.051356  -0.000153  -0.007834   0.258141   0.001260   0.000789
    14  H    0.006902   0.000002   0.000061  -0.039765  -0.000270   0.000027
    15  H   -0.013877  -0.000015  -0.000766  -0.043876   0.010373  -0.000084
    16  H   -0.006910   0.000050   0.006795  -0.043550  -0.002006   0.000424
             13         14         15         16
     1  H    0.000012  -0.000001   0.000003   0.000000
     2  C   -0.000185   0.000008   0.000111  -0.000041
     3  C    0.002905  -0.000051  -0.000608   0.000544
     4  H   -0.000047  -0.000001   0.000017   0.000000
     5  H    0.000008   0.000000  -0.000002  -0.000001
     6  H    0.000441  -0.000121   0.000071   0.000019
     7  Si  -0.051356   0.006902  -0.013877  -0.006910
     8  H   -0.000153   0.000002  -0.000015   0.000050
     9  O   -0.007834   0.000061  -0.000766   0.006795
    10  O    0.258141  -0.039765  -0.043876  -0.043550
    11  H    0.001260  -0.000270   0.010373  -0.002006
    12  H    0.000789   0.000027  -0.000084   0.000424
    13  C    4.770731   0.401903   0.417123   0.413249
    14  H    0.401903   0.566977  -0.031149  -0.033088
    15  H    0.417123  -0.031149   0.592379  -0.047577
    16  H    0.413249  -0.033088  -0.047577   0.592011
 Mulliken atomic charges:
              1
     1  H    0.125233
     2  C   -0.384806
     3  C   -0.310582
     4  H    0.127471
     5  H    0.127610
     6  H    0.128742
     7  Si   0.546214
     8  H    0.103086
     9  O   -0.529065
    10  O   -0.342982
    11  H   -0.068847
    12  H    0.318392
    13  C   -0.206986
    14  H    0.128565
    15  H    0.117877
    16  H    0.120079
 Sum of Mulliken atomic charges =   0.00000
 Mulliken charges with hydrogens summed into heavy atoms:
              1
     2  C   -0.004493
     3  C   -0.078755
     7  Si   0.477368
     9  O   -0.210673
    10  O   -0.342982
    13  C    0.159535
 Sum of Mulliken charges with hydrogens summed into heavy atoms =   0.00000
 Electronic spatial extent (au):  <R**2>=            931.1184
 Charge=              0.0000 electrons
 Dipole moment (field-independent basis, Debye):
    X=              0.1645    Y=             -0.0361    Z=             -1.1071  Tot=              1.1198
 Quadrupole moment (field-independent basis, Debye-Ang):
   XX=            -41.5255   YY=            -46.2362   ZZ=            -44.7332
   XY=             -0.5629   XZ=              0.3908   YZ=             -4.2850
 Traceless Quadrupole moment (field-independent basis, Debye-Ang):
   XX=              2.6394   YY=             -2.0712   ZZ=             -0.5682
   XY=             -0.5629   XZ=              0.3908   YZ=             -4.2850
 Octapole moment (field-independent basis, Debye-Ang**2):
  XXX=             19.2017  YYY=              3.3132  ZZZ=             -6.6381  XYY=              2.5942
  XXY=             -1.5154  XXZ=             -1.3421  XZZ=              3.2915  YZZ=              5.2137
  YYZ=             -9.5846  XYZ=             -2.7247
 Hexadecapole moment (field-independent basis, Debye-Ang**3):
 XXXX=           -838.4779 YYYY=           -263.1403 ZZZZ=           -130.9341 XXXY=            -12.9773
 XXXZ=              1.9868 YYYX=             -2.1207 YYYZ=            -20.5389 ZZZX=             -0.2686
 ZZZY=             -5.7557 XXYY=           -182.5082 XXZZ=           -165.4069 YYZZ=            -55.5805
 XXYZ=              0.6790 YYXZ=             -5.9378 ZZXY=              0.0174
 N-N= 3.259080330203D+02 E-N=-1.975844569253D+03  KE= 5.582528170392D+02
 1\1\GINC-TARSUS2\SP\RPBE1PBE\def2TZVP\C3H10O2Si1\RENATO\29-Jun-2018\0\
 \#SP PBE1PBE/Def2TZVP geom=connectivity\\Structure: 62\\0,1\H,0,0.,0.,
 0.\C,0,1.093,0.,0.\C,0,1.655,1.421,0.\H,0,1.41,-0.56,-0.885\H,0,1.424,
 -0.557,0.88\H,0,1.308,1.969,-0.883\Si,0,3.513,1.515,0.035\H,0,1.282,1.
 975,0.868\O,0,4.098,2.113,1.456\O,0,3.936,2.456,-1.243\H,0,4.168,0.186
 ,-0.074\H,0,3.761,2.959,1.753\C,0,5.269,2.712,-1.619\H,0,5.26,3.302,-2
 .538\H,0,5.817,1.782,-1.809\H,0,5.802,3.275,-0.846\\Version=EM64L-G09R
 evC.01\State=1-A\HF=-560.059236\RMSD=5.589e-09\Dipole=-0.1716711,0.404
 6985,-0.0292098\Quadrupole=0.4263799,0.5807877,-1.0071675,1.1402112,-2
 .708827,2.0504839\PG=C01 [X(C3H10O2Si1)]\\@


 THE FIRST MORNING OF CREATION WROTE WHAT THE LAST DAWN OF
 RECKONING SHALL READ. -- OMAR KHAYYAM
 Job cpu time:  0 days  0 hours  7 minutes 20.9 seconds.
 File lengths (MBytes):  RWF=     40 Int=      0 D2E=      0 Chk=      3 Scr=      1
 Normal termination of Gaussian 09 at Fri Jun 29 14:23:25 2018.
