 Entering Gaussian System, Link 0=g09
 Initial command:
 /usr/local/gaussian09/g09/l1.exe /scratch/renato/Gau-30624.inp -scrdir=/scratch/renato/
 Entering Link 1 = /usr/local/gaussian09/g09/l1.exe PID=     30626.
  
 Copyright (c) 1988,1990,1992,1993,1995,1998,2003,2009,2011,
            Gaussian, Inc.  All Rights Reserved.
  
 This is part of the Gaussian(R) 09 program.  It is based on
 the Gaussian(R) 03 system (copyright 2003, Gaussian, Inc.),
 the Gaussian(R) 98 system (copyright 1998, Gaussian, Inc.),
 the Gaussian(R) 94 system (copyright 1995, Gaussian, Inc.),
 the Gaussian 92(TM) system (copyright 1992, Gaussian, Inc.),
 the Gaussian 90(TM) system (copyright 1990, Gaussian, Inc.),
 the Gaussian 88(TM) system (copyright 1988, Gaussian, Inc.),
 the Gaussian 86(TM) system (copyright 1986, Carnegie Mellon
 University), and the Gaussian 82(TM) system (copyright 1983,
 Carnegie Mellon University). Gaussian is a federally registered
 trademark of Gaussian, Inc.
  
 This software contains proprietary and confidential information,
 including trade secrets, belonging to Gaussian, Inc.
  
 This software is provided under written license and may be
 used, copied, transmitted, or stored only in accord with that
 written license.
  
 The following legend is applicable only to US Government
 contracts under FAR:
  
                    RESTRICTED RIGHTS LEGEND
  
 Use, reproduction and disclosure by the US Government is
 subject to restrictions as set forth in subparagraphs (a)
 and (c) of the Commercial Computer Software - Restricted
 Rights clause in FAR 52.227-19.
  
 Gaussian, Inc.
 340 Quinnipiac St., Bldg. 40, Wallingford CT 06492
  
  
 ---------------------------------------------------------------
 Warning -- This program may not be used in any manner that
 competes with the business of Gaussian, Inc. or will provide
 assistance to any competitor of Gaussian, Inc.  The licensee
 of this program is prohibited from giving any competitor of
 Gaussian, Inc. access to this program.  By using this program,
 the user acknowledges that Gaussian, Inc. is engaged in the
 business of creating and licensing software in the field of
 computational chemistry and represents and warrants to the
 licensee that it is not a competitor of Gaussian, Inc. and that
 it will not use this program in any manner prohibited above.
 ---------------------------------------------------------------
  

 Cite this work as:
 Gaussian 09, Revision C.01,
 M. J. Frisch, G. W. Trucks, H. B. Schlegel, G. E. Scuseria, 
 M. A. Robb, J. R. Cheeseman, G. Scalmani, V. Barone, B. Mennucci, 
 G. A. Petersson, H. Nakatsuji, M. Caricato, X. Li, H. P. Hratchian, 
 A. F. Izmaylov, J. Bloino, G. Zheng, J. L. Sonnenberg, M. Hada, 
 M. Ehara, K. Toyota, R. Fukuda, J. Hasegawa, M. Ishida, T. Nakajima, 
 Y. Honda, O. Kitao, H. Nakai, T. Vreven, J. A. Montgomery, Jr., 
 J. E. Peralta, F. Ogliaro, M. Bearpark, J. J. Heyd, E. Brothers, 
 K. N. Kudin, V. N. Staroverov, T. Keith, R. Kobayashi, J. Normand, 
 K. Raghavachari, A. Rendell, J. C. Burant, S. S. Iyengar, J. Tomasi, 
 M. Cossi, N. Rega, J. M. Millam, M. Klene, J. E. Knox, J. B. Cross, 
 V. Bakken, C. Adamo, J. Jaramillo, R. Gomperts, R. E. Stratmann, 
 O. Yazyev, A. J. Austin, R. Cammi, C. Pomelli, J. W. Ochterski, 
 R. L. Martin, K. Morokuma, V. G. Zakrzewski, G. A. Voth, 
 P. Salvador, J. J. Dannenberg, S. Dapprich, A. D. Daniels, 
 O. Farkas, J. B. Foresman, J. V. Ortiz, J. Cioslowski, 
 and D. J. Fox, Gaussian, Inc., Wallingford CT, 2010.
 
 ******************************************
 Gaussian 09:  EM64L-G09RevC.01 23-Sep-2011
                29-Jun-2018 
 ******************************************
 %nproc=2
 Will use up to    2 processors via shared memory.
 %mem=256MB
 %RWF=d23.rwf
 %chk=d2365
 %NoSave
 --------------------------------------
 #SP PBE1PBE/Def2TZVP geom=connectivity
 --------------------------------------
 1/38=1,57=2/1;
 2/12=2,17=6,18=5,40=1/2;
 3/5=44,7=101,11=2,16=1,25=1,30=1,74=-13/1,2,3;
 4//1;
 5/5=2,38=5/2;
 6/7=2,8=2,9=2,10=2,28=1/1;
 99/5=1,9=1/99;
 -------------
 Structure: 65
 -------------
 Charge =  0 Multiplicity = 1
 Symbolic Z-Matrix:
 H                     0.        0.        0. 
 C                     1.093     0.        0. 
 C                     1.655     1.421     0. 
 H                     1.41     -0.56     -0.885 
 H                     1.424    -0.557     0.88 
 H                     1.308     1.969    -0.883 
 Si                    3.513     1.515     0.035 
 H                     1.282     1.975     0.868 
 O                     4.105     1.963     1.508 
 O                     3.928     2.585    -1.14 
 H                     4.17      0.207    -0.215 
 H                     3.768     2.773     1.893 
 C                     5.258     2.882    -1.494 
 H                     5.243     3.565    -2.346 
 H                     5.807     1.979    -1.783 
 H                     5.794     3.363    -0.67 
 
                          Input orientation:                          
 ---------------------------------------------------------------------
 Center     Atomic      Atomic             Coordinates (Angstroms)
 Number     Number       Type             X           Y           Z
 ---------------------------------------------------------------------
      1          1           0        0.000000    0.000000    0.000000
      2          6           0        1.093000    0.000000    0.000000
      3          6           0        1.655000    1.421000    0.000000
      4          1           0        1.410000   -0.560000   -0.885000
      5          1           0        1.424000   -0.557000    0.880000
      6          1           0        1.308000    1.969000   -0.883000
      7         14           0        3.513000    1.515000    0.035000
      8          1           0        1.282000    1.975000    0.868000
      9          8           0        4.105000    1.963000    1.508000
     10          8           0        3.928000    2.585000   -1.140000
     11          1           0        4.170000    0.207000   -0.215000
     12          1           0        3.768000    2.773000    1.893000
     13          6           0        5.258000    2.882000   -1.494000
     14          1           0        5.243000    3.565000   -2.346000
     15          1           0        5.807000    1.979000   -1.783000
     16          1           0        5.794000    3.363000   -0.670000
 ---------------------------------------------------------------------
                    Distance matrix (angstroms):
                    1          2          3          4          5
     1  H    0.000000
     2  C    1.093000   0.000000
     3  C    2.181345   1.528098   0.000000
     4  H    1.756395   1.094218   2.183486   0.000000
     5  H    1.764207   1.092799   2.177210   1.765058   0.000000
     6  H    2.523393   2.168611   1.095629   2.531057   3.082580
     7  Si   3.825914   2.855320   1.860706   3.094291   3.061230
     8  H    2.509497   2.165588   1.095203   3.084740   2.536007
     9  O    4.793585   3.898663   2.927512   4.399432   3.732632
    10  O    4.838492   4.002381   2.796610   4.036877   4.496952
    11  H    4.180667   3.091440   2.800937   2.941902   3.053398
    12  H    5.046861   4.292855   3.142630   4.938252   4.196356
    13  C    6.179363   5.280642   4.165113   5.198591   5.671169
    14  H    6.760325   5.952768   4.793141   5.817391   6.479407
    15  H    6.388801   5.414548   4.552972   5.156213   5.721324
    16  H    6.732689   5.818769   4.620778   5.886902   6.071721
                    6          7          8          9         10
     6  H    0.000000
     7  Si   2.431227   0.000000
     8  H    1.751203   2.425459   0.000000
     9  O    3.679691   1.649514   2.894663   0.000000
    10  O    2.703684   1.642483   3.377200   2.725824   0.000000
    11  H    3.426647   1.484929   3.555173   2.460994   2.563020
    12  H    3.795285   2.258263   2.804929   0.958068   3.043030
    13  C    4.099926   2.692871   4.712777   3.344544   1.407986
    14  H    4.491304   3.586720   5.342978   4.326056   2.035697
    15  H    4.588148   2.963588   5.244372   3.705097   2.076373
    16  H    4.702425   3.019121   4.964890   3.091344   2.075606
                   11         12         13         14         15
    11  H    0.000000
    12  H    3.345090   0.000000
    13  C    3.158356   3.701858   0.000000
    14  H    4.119303   4.557632   1.092071   0.000000
    15  H    2.877217   4.277959   1.095596   1.774954   0.000000
    16  H    3.578371   3.319901   1.094364   1.775776   1.776061
                   16
    16  H    0.000000
 Stoichiometry    C3H10O2Si
 Framework group  C1[X(C3H10O2Si)]
 Deg. of freedom    42
 Full point group                 C1      NOp   1
 Largest Abelian subgroup         C1      NOp   1
 Largest concise Abelian subgroup C1      NOp   1
                         Standard orientation:                         
 ---------------------------------------------------------------------
 Center     Atomic      Atomic             Coordinates (Angstroms)
 Number     Number       Type             X           Y           Z
 ---------------------------------------------------------------------
      1          1           0       -3.611450   -0.840832   -0.240533
      2          6           0       -2.718849   -0.536576    0.312042
      3          6           0       -1.525825   -0.326115   -0.619347
      4          1           0       -2.521517   -1.318975    1.051114
      5          1           0       -2.962726    0.378946    0.856611
      6          1           0       -1.298892   -1.249312   -1.163967
      7         14           0        0.031068    0.228257    0.235627
      8          1           0       -1.767614    0.424152   -1.379680
      9          8           0        0.366905    1.823752   -0.014388
     10          8           0        1.225089   -0.743218   -0.337348
     11          1           0       -0.043749    0.121492    1.714822
     12          1           0        0.411052    2.130226   -0.921041
     13          6           0        2.555758   -0.701440    0.120909
     14          1           0        3.115582   -1.497335   -0.374840
     15          1           0        2.611995   -0.860302    1.203467
     16          1           0        3.029918    0.256861   -0.112467
 ---------------------------------------------------------------------
 Rotational constants (GHZ):      4.7659675      1.6827190      1.3784277
 Standard basis: def2TZVP (5D, 7F)
 There are   252 symmetry adapted basis functions of A   symmetry.
 Integral buffers will be    131072 words long.
 Raffenetti 2 integral format.
 Two-electron integral symmetry is turned on.
   252 basis functions,   404 primitive gaussians,   282 cartesian basis functions
    29 alpha electrons       29 beta electrons
       nuclear repulsion energy       325.8705672192 Hartrees.
 NAtoms=   16 NActive=   16 NUniq=   16 SFac= 1.00D+00 NAtFMM=   60 NAOKFM=F Big=F
 One-electron integrals computed using PRISM.
   1 Symmetry operations used in ECPInt.
 ECPInt:  NShTT=    5886 NPrTT=   17754 LenC2=    5736 LenP2D=   13747.
 LDataN:  DoStor=T MaxTD1= 6 Len=  172
 NBasis=   252 RedAO= T  NBF=   252
 NBsUse=   252 1.00D-06 NBFU=   252
 Harris functional with IExCor= 1009 diagonalized for initial guess.
 ExpMin= 7.01D-02 ExpMax= 4.48D+04 ExpMxC= 1.53D+03 IAcc=2 IRadAn=         4 AccDes= 0.00D+00
 HarFok:  IExCor= 1009 AccDes= 0.00D+00 IRadAn=         4 IDoV= 1
 ScaDFX=  1.000000  1.000000  1.000000  1.000000
 FoFCou: FMM=F IPFlag=           0 FMFlag=      100000 FMFlg1=           0
         NFxFlg=           0 DoJE=T BraDBF=F KetDBF=T FulRan=T
         Omega=  0.000000  0.000000  1.000000  0.000000  0.000000 ICntrl=     500 IOpCl=  0
         NMat0=    1 NMatS0=    1 NMatT0=    0 NMatD0=    1 NMtDS0=    0 NMtDT0=    0
         I1Cent=           4 NGrid=           0.
 Petite list used in FoFCou.
 Initial guess orbital symmetries:
       Occupied  (A) (A) (A) (A) (A) (A) (A) (A) (A) (A) (A) (A)
                 (A) (A) (A) (A) (A) (A) (A) (A) (A) (A) (A) (A)
                 (A) (A) (A) (A) (A)
       Virtual   (A) (A) (A) (A) (A) (A) (A) (A) (A) (A) (A) (A)
                 (A) (A) (A) (A) (A) (A) (A) (A) (A) (A) (A) (A)
                 (A) (A) (A) (A) (A) (A) (A) (A) (A) (A) (A) (A)
                 (A) (A) (A) (A) (A) (A) (A) (A) (A) (A) (A) (A)
                 (A) (A) (A) (A) (A) (A) (A) (A) (A) (A) (A) (A)
                 (A) (A) (A) (A) (A) (A) (A) (A) (A) (A) (A) (A)
                 (A) (A) (A) (A) (A) (A) (A) (A) (A) (A) (A) (A)
                 (A) (A) (A) (A) (A) (A) (A) (A) (A) (A) (A) (A)
                 (A) (A) (A) (A) (A) (A) (A) (A) (A) (A) (A) (A)
                 (A) (A) (A) (A) (A) (A) (A) (A) (A) (A) (A) (A)
                 (A) (A) (A) (A) (A) (A) (A) (A) (A) (A) (A) (A)
                 (A) (A) (A) (A) (A) (A) (A) (A) (A) (A) (A) (A)
                 (A) (A) (A) (A) (A) (A) (A) (A) (A) (A) (A) (A)
                 (A) (A) (A) (A) (A) (A) (A) (A) (A) (A) (A) (A)
                 (A) (A) (A) (A) (A) (A) (A) (A) (A) (A) (A) (A)
                 (A) (A) (A) (A) (A) (A) (A) (A) (A) (A) (A) (A)
                 (A) (A) (A) (A) (A) (A) (A) (A) (A) (A) (A) (A)
                 (A) (A) (A) (A) (A) (A) (A) (A) (A) (A) (A) (A)
                 (A) (A) (A) (A) (A) (A) (A)
 The electronic state of the initial guess is 1-A.
 Requested convergence on RMS density matrix=1.00D-08 within 128 cycles.
 Requested convergence on MAX density matrix=1.00D-06.
 Requested convergence on             energy=1.00D-06.
 No special actions if energy rises.
 Integral accuracy reduced to 1.0D-05 until final iterations.
 Initial convergence to 1.0D-05 achieved.  Increase integral accuracy.
 SCF Done:  E(RPBE1PBE) =  -560.059380986     A.U. after   12 cycles
             Convg  =    0.6193D-08             -V/T =  2.0032

 **********************************************************************

            Population analysis using the SCF density.

 **********************************************************************

 Orbital symmetries:
       Occupied  (A) (A) (A) (A) (A) (A) (A) (A) (A) (A) (A) (A)
                 (A) (A) (A) (A) (A) (A) (A) (A) (A) (A) (A) (A)
                 (A) (A) (A) (A) (A)
       Virtual   (A) (A) (A) (A) (A) (A) (A) (A) (A) (A) (A) (A)
                 (A) (A) (A) (A) (A) (A) (A) (A) (A) (A) (A) (A)
                 (A) (A) (A) (A) (A) (A) (A) (A) (A) (A) (A) (A)
                 (A) (A) (A) (A) (A) (A) (A) (A) (A) (A) (A) (A)
                 (A) (A) (A) (A) (A) (A) (A) (A) (A) (A) (A) (A)
                 (A) (A) (A) (A) (A) (A) (A) (A) (A) (A) (A) (A)
                 (A) (A) (A) (A) (A) (A) (A) (A) (A) (A) (A) (A)
                 (A) (A) (A) (A) (A) (A) (A) (A) (A) (A) (A) (A)
                 (A) (A) (A) (A) (A) (A) (A) (A) (A) (A) (A) (A)
                 (A) (A) (A) (A) (A) (A) (A) (A) (A) (A) (A) (A)
                 (A) (A) (A) (A) (A) (A) (A) (A) (A) (A) (A) (A)
                 (A) (A) (A) (A) (A) (A) (A) (A) (A) (A) (A) (A)
                 (A) (A) (A) (A) (A) (A) (A) (A) (A) (A) (A) (A)
                 (A) (A) (A) (A) (A) (A) (A) (A) (A) (A) (A) (A)
                 (A) (A) (A) (A) (A) (A) (A) (A) (A) (A) (A) (A)
                 (A) (A) (A) (A) (A) (A) (A) (A) (A) (A) (A) (A)
                 (A) (A) (A) (A) (A) (A) (A) (A) (A) (A) (A) (A)
                 (A) (A) (A) (A) (A) (A) (A) (A) (A) (A) (A) (A)
                 (A) (A) (A) (A) (A) (A) (A)
 The electronic state is 1-A.
 Alpha  occ. eigenvalues --  -66.25394 -19.20222 -19.20018 -10.26410 -10.21501
 Alpha  occ. eigenvalues --  -10.20733  -5.33061  -3.66587  -3.66470  -3.66336
 Alpha  occ. eigenvalues --   -1.04441  -1.02276  -0.78057  -0.70583  -0.63700
 Alpha  occ. eigenvalues --   -0.56872  -0.51005  -0.46836  -0.46363  -0.45756
 Alpha  occ. eigenvalues --   -0.44566  -0.40163  -0.38538  -0.37770  -0.36324
 Alpha  occ. eigenvalues --   -0.35366  -0.31817  -0.30488  -0.29691
 Alpha virt. eigenvalues --    0.03178   0.04522   0.05633   0.07065   0.09869
 Alpha virt. eigenvalues --    0.10075   0.11628   0.11775   0.12601   0.12841
 Alpha virt. eigenvalues --    0.13474   0.14536   0.16211   0.17445   0.18980
 Alpha virt. eigenvalues --    0.22070   0.22352   0.24095   0.25310   0.25572
 Alpha virt. eigenvalues --    0.26471   0.27821   0.28819   0.30186   0.31708
 Alpha virt. eigenvalues --    0.35059   0.38364   0.38831   0.39754   0.40486
 Alpha virt. eigenvalues --    0.41795   0.42223   0.43413   0.44190   0.44684
 Alpha virt. eigenvalues --    0.46025   0.46814   0.48201   0.48967   0.50913
 Alpha virt. eigenvalues --    0.51819   0.53540   0.54296   0.56257   0.58938
 Alpha virt. eigenvalues --    0.60717   0.62424   0.65248   0.67037   0.68796
 Alpha virt. eigenvalues --    0.71758   0.73359   0.76962   0.79808   0.80222
 Alpha virt. eigenvalues --    0.83121   0.85144   0.86843   0.88107   0.90163
 Alpha virt. eigenvalues --    0.93903   0.94823   0.98853   0.99556   1.01035
 Alpha virt. eigenvalues --    1.04192   1.05809   1.07789   1.08309   1.09515
 Alpha virt. eigenvalues --    1.10790   1.13738   1.16041   1.22103   1.24557
 Alpha virt. eigenvalues --    1.25370   1.27436   1.31287   1.39206   1.40198
 Alpha virt. eigenvalues --    1.42761   1.46015   1.49185   1.49241   1.50655
 Alpha virt. eigenvalues --    1.53031   1.55096   1.55422   1.56506   1.57306
 Alpha virt. eigenvalues --    1.58983   1.60538   1.63277   1.65086   1.65722
 Alpha virt. eigenvalues --    1.68076   1.71326   1.75736   1.77941   1.79172
 Alpha virt. eigenvalues --    1.81734   1.82921   1.86419   1.88315   1.90679
 Alpha virt. eigenvalues --    1.93794   1.95172   1.97445   2.01211   2.03659
 Alpha virt. eigenvalues --    2.04560   2.08982   2.11172   2.11402   2.15145
 Alpha virt. eigenvalues --    2.17458   2.20689   2.24225   2.25384   2.30397
 Alpha virt. eigenvalues --    2.32305   2.32863   2.33740   2.35223   2.36370
 Alpha virt. eigenvalues --    2.36980   2.40397   2.42671   2.45835   2.48479
 Alpha virt. eigenvalues --    2.52658   2.53376   2.55889   2.56783   2.58528
 Alpha virt. eigenvalues --    2.59704   2.60721   2.66681   2.68394   2.69107
 Alpha virt. eigenvalues --    2.71189   2.73279   2.77612   2.83304   2.86394
 Alpha virt. eigenvalues --    2.88077   2.93256   2.97084   2.98851   3.02111
 Alpha virt. eigenvalues --    3.04153   3.09384   3.10062   3.12099   3.14785
 Alpha virt. eigenvalues --    3.20681   3.22728   3.24012   3.29245   3.31367
 Alpha virt. eigenvalues --    3.32817   3.33944   3.35374   3.38379   3.43798
 Alpha virt. eigenvalues --    3.44905   3.47387   3.50252   3.53526   3.54251
 Alpha virt. eigenvalues --    3.58415   3.61237   3.63376   3.65545   3.77021
 Alpha virt. eigenvalues --    3.81656   3.86786   3.92550   3.95718   4.01836
 Alpha virt. eigenvalues --    4.19072   4.24484   4.24890   4.34860   4.37089
 Alpha virt. eigenvalues --    4.41547   4.47051   4.54402   4.55158   4.79291
 Alpha virt. eigenvalues --    5.15656   5.16836   5.17798   5.18133   5.28102
 Alpha virt. eigenvalues --    5.28913   5.38742   5.41862   5.45357   5.49924
 Alpha virt. eigenvalues --    5.80002   5.86727   6.02285   6.22728   6.39030
 Alpha virt. eigenvalues --    6.41906   6.53369   6.58489   6.60135   6.66164
 Alpha virt. eigenvalues --    6.67716   6.79171   6.82287   6.98623   7.05932
 Alpha virt. eigenvalues --    7.15738   7.22680  11.88374  22.36537  22.40405
 Alpha virt. eigenvalues --   22.45481  43.61771  43.91265
          Condensed to atoms (all electrons):
              1          2          3          4          5          6
     1  H    0.562616   0.410996  -0.033818  -0.027583  -0.028599  -0.007269
     2  C    0.410996   4.900232   0.316121   0.412464   0.409173  -0.028865
     3  C   -0.033818   0.316121   5.084766  -0.038540  -0.040272   0.371533
     4  H   -0.027583   0.412464  -0.038540   0.554853  -0.024620  -0.004714
     5  H   -0.028599   0.409173  -0.040272  -0.024620   0.555890   0.007931
     6  H   -0.007269  -0.028865   0.371533  -0.004714   0.007931   0.561146
     7  Si   0.006178  -0.014253   0.404297  -0.008259  -0.005388  -0.013661
     8  H   -0.007836  -0.028625   0.373054   0.008045  -0.004054  -0.023983
     9  O   -0.000214  -0.000813  -0.044306  -0.000055   0.001098   0.001832
    10  O   -0.000109   0.001087  -0.035757   0.000120   0.000053   0.004418
    11  H    0.000096   0.006589  -0.047820   0.000953   0.000966   0.002561
    12  H    0.000015  -0.000219  -0.003500   0.000005   0.000000   0.000014
    13  C    0.000011  -0.000184   0.002777  -0.000034   0.000006   0.000396
    14  H    0.000000   0.000001  -0.000038   0.000000   0.000000  -0.000124
    15  H    0.000003   0.000104  -0.000527   0.000017  -0.000003   0.000044
    16  H    0.000000  -0.000032   0.000496  -0.000001  -0.000001   0.000037
              7          8          9         10         11         12
     1  H    0.006178  -0.007836  -0.000214  -0.000109   0.000096   0.000015
     2  C   -0.014253  -0.028625  -0.000813   0.001087   0.006589  -0.000219
     3  C    0.404297   0.373054  -0.044306  -0.035757  -0.047820  -0.003500
     4  H   -0.008259   0.008045  -0.000055   0.000120   0.000953   0.000005
     5  H   -0.005388  -0.004054   0.001098   0.000053   0.000966   0.000000
     6  H   -0.013661  -0.023983   0.001832   0.004418   0.002561   0.000014
     7  Si  11.865375  -0.023523   0.479461   0.464708   0.391834  -0.026458
     8  H   -0.023523   0.598208   0.001144   0.001177   0.002243   0.002213
     9  O    0.479461   0.001144   7.846038  -0.034358  -0.018086   0.299538
    10  O    0.464708   0.001177  -0.034358   7.839564  -0.027876  -0.001254
    11  H    0.391834   0.002243  -0.018086  -0.027876   0.744659   0.004006
    12  H   -0.026458   0.002213   0.299538  -0.001254   0.004006   0.406112
    13  C   -0.051252  -0.000137  -0.007993   0.258459   0.001262   0.000791
    14  H    0.006853   0.000004   0.000063  -0.039803  -0.000270   0.000026
    15  H   -0.013755  -0.000015  -0.000742  -0.043822   0.010310  -0.000080
    16  H   -0.006730   0.000047   0.006804  -0.043719  -0.002014   0.000403
             13         14         15         16
     1  H    0.000011   0.000000   0.000003   0.000000
     2  C   -0.000184   0.000001   0.000104  -0.000032
     3  C    0.002777  -0.000038  -0.000527   0.000496
     4  H   -0.000034   0.000000   0.000017  -0.000001
     5  H    0.000006   0.000000  -0.000003  -0.000001
     6  H    0.000396  -0.000124   0.000044   0.000037
     7  Si  -0.051252   0.006853  -0.013755  -0.006730
     8  H   -0.000137   0.000004  -0.000015   0.000047
     9  O   -0.007993   0.000063  -0.000742   0.006804
    10  O    0.258459  -0.039803  -0.043822  -0.043719
    11  H    0.001262  -0.000270   0.010310  -0.002014
    12  H    0.000791   0.000026  -0.000080   0.000403
    13  C    4.770200   0.401984   0.416910   0.413400
    14  H    0.401984   0.567238  -0.031186  -0.033226
    15  H    0.416910  -0.031186   0.592540  -0.047581
    16  H    0.413400  -0.033226  -0.047581   0.592212
 Mulliken atomic charges:
              1
     1  H    0.125515
     2  C   -0.383777
     3  C   -0.308467
     4  H    0.127349
     5  H    0.127818
     6  H    0.128705
     7  Si   0.544574
     8  H    0.102038
     9  O   -0.529410
    10  O   -0.342887
    11  H   -0.069412
    12  H    0.318388
    13  C   -0.206595
    14  H    0.128476
    15  H    0.117782
    16  H    0.119903
 Sum of Mulliken atomic charges =   0.00000
 Mulliken charges with hydrogens summed into heavy atoms:
              1
     2  C   -0.003095
     3  C   -0.077724
     7  Si   0.475163
     9  O   -0.211023
    10  O   -0.342887
    13  C    0.159567
 Sum of Mulliken charges with hydrogens summed into heavy atoms =   0.00000
 Electronic spatial extent (au):  <R**2>=            933.0465
 Charge=              0.0000 electrons
 Dipole moment (field-independent basis, Debye):
    X=              0.1589    Y=             -0.0514    Z=             -1.1050  Tot=              1.1175
 Quadrupole moment (field-independent basis, Debye-Ang):
   XX=            -41.5053   YY=            -46.3872   ZZ=            -44.6007
   XY=             -0.3941   XZ=              0.5137   YZ=             -4.2666
 Traceless Quadrupole moment (field-independent basis, Debye-Ang):
   XX=              2.6591   YY=             -2.2228   ZZ=             -0.4363
   XY=             -0.3941   XZ=              0.5137   YZ=             -4.2666
 Octapole moment (field-independent basis, Debye-Ang**2):
  XXX=             19.5568  YYY=              2.9576  ZZZ=             -6.8534  XYY=              2.2844
  XXY=             -1.4471  XXZ=             -1.2097  XZZ=              3.2268  YZZ=              5.4075
  YYZ=             -9.3816  XYZ=             -2.4201
 Hexadecapole moment (field-independent basis, Debye-Ang**3):
 XXXX=           -847.5146 YYYY=           -257.6711 ZZZZ=           -130.0349 XXXY=            -12.6888
 XXXZ=              2.3571 YYYX=             -2.3263 YYYZ=            -19.8523 ZZZX=              0.0008
 ZZZY=             -7.0850 XXYY=           -183.2245 XXZZ=           -167.0663 YYZZ=            -54.1427
 XXYZ=              0.5267 YYXZ=             -5.5318 ZZXY=              0.0622
 N-N= 3.258705672192D+02 E-N=-1.975767953095D+03  KE= 5.582529848004D+02
 1\1\GINC-TARSUS2\SP\RPBE1PBE\def2TZVP\C3H10O2Si1\RENATO\29-Jun-2018\0\
 \#SP PBE1PBE/Def2TZVP geom=connectivity\\Structure: 65\\0,1\H,0,0.,0.,
 0.\C,0,1.093,0.,0.\C,0,1.655,1.421,0.\H,0,1.41,-0.56,-0.885\H,0,1.424,
 -0.557,0.88\H,0,1.308,1.969,-0.883\Si,0,3.513,1.515,0.035\H,0,1.282,1.
 975,0.868\O,0,4.105,1.963,1.508\O,0,3.928,2.585,-1.14\H,0,4.17,0.207,-
 0.215\H,0,3.768,2.773,1.893\C,0,5.258,2.882,-1.494\H,0,5.243,3.565,-2.
 346\H,0,5.807,1.979,-1.783\H,0,5.794,3.363,-0.67\\Version=EM64L-G09Rev
 C.01\State=1-A\HF=-560.059381\RMSD=6.193e-09\Dipole=-0.1743524,0.40339
 35,0.0135245\Quadrupole=0.3968307,0.1451278,-0.5419585,1.4329281,-2.57
 15084,2.1827784\PG=C01 [X(C3H10O2Si1)]\\@


 WE STILL HAVE JUDGEMENT HERE,
 THAT WE TEACH BUT BLOODY INSTRUCTIONS,
 WHICH, BEING TAUGHT,
 RETURN TO PLAGUE THE INVENTOR.
           MACBETH ACT I, SCENE VII
 Job cpu time:  0 days  0 hours  9 minutes  2.1 seconds.
 File lengths (MBytes):  RWF=     40 Int=      0 D2E=      0 Chk=      3 Scr=      1
 Normal termination of Gaussian 09 at Fri Jun 29 14:36:25 2018.
