 Entering Gaussian System, Link 0=g09
 Initial command:
 /usr/local/gaussian09/g09/l1.exe /scratch/renato/Gau-32015.inp -scrdir=/scratch/renato/
 Entering Link 1 = /usr/local/gaussian09/g09/l1.exe PID=     32017.
  
 Copyright (c) 1988,1990,1992,1993,1995,1998,2003,2009,2011,
            Gaussian, Inc.  All Rights Reserved.
  
 This is part of the Gaussian(R) 09 program.  It is based on
 the Gaussian(R) 03 system (copyright 2003, Gaussian, Inc.),
 the Gaussian(R) 98 system (copyright 1998, Gaussian, Inc.),
 the Gaussian(R) 94 system (copyright 1995, Gaussian, Inc.),
 the Gaussian 92(TM) system (copyright 1992, Gaussian, Inc.),
 the Gaussian 90(TM) system (copyright 1990, Gaussian, Inc.),
 the Gaussian 88(TM) system (copyright 1988, Gaussian, Inc.),
 the Gaussian 86(TM) system (copyright 1986, Carnegie Mellon
 University), and the Gaussian 82(TM) system (copyright 1983,
 Carnegie Mellon University). Gaussian is a federally registered
 trademark of Gaussian, Inc.
  
 This software contains proprietary and confidential information,
 including trade secrets, belonging to Gaussian, Inc.
  
 This software is provided under written license and may be
 used, copied, transmitted, or stored only in accord with that
 written license.
  
 The following legend is applicable only to US Government
 contracts under FAR:
  
                    RESTRICTED RIGHTS LEGEND
  
 Use, reproduction and disclosure by the US Government is
 subject to restrictions as set forth in subparagraphs (a)
 and (c) of the Commercial Computer Software - Restricted
 Rights clause in FAR 52.227-19.
  
 Gaussian, Inc.
 340 Quinnipiac St., Bldg. 40, Wallingford CT 06492
  
  
 ---------------------------------------------------------------
 Warning -- This program may not be used in any manner that
 competes with the business of Gaussian, Inc. or will provide
 assistance to any competitor of Gaussian, Inc.  The licensee
 of this program is prohibited from giving any competitor of
 Gaussian, Inc. access to this program.  By using this program,
 the user acknowledges that Gaussian, Inc. is engaged in the
 business of creating and licensing software in the field of
 computational chemistry and represents and warrants to the
 licensee that it is not a competitor of Gaussian, Inc. and that
 it will not use this program in any manner prohibited above.
 ---------------------------------------------------------------
  

 Cite this work as:
 Gaussian 09, Revision C.01,
 M. J. Frisch, G. W. Trucks, H. B. Schlegel, G. E. Scuseria, 
 M. A. Robb, J. R. Cheeseman, G. Scalmani, V. Barone, B. Mennucci, 
 G. A. Petersson, H. Nakatsuji, M. Caricato, X. Li, H. P. Hratchian, 
 A. F. Izmaylov, J. Bloino, G. Zheng, J. L. Sonnenberg, M. Hada, 
 M. Ehara, K. Toyota, R. Fukuda, J. Hasegawa, M. Ishida, T. Nakajima, 
 Y. Honda, O. Kitao, H. Nakai, T. Vreven, J. A. Montgomery, Jr., 
 J. E. Peralta, F. Ogliaro, M. Bearpark, J. J. Heyd, E. Brothers, 
 K. N. Kudin, V. N. Staroverov, T. Keith, R. Kobayashi, J. Normand, 
 K. Raghavachari, A. Rendell, J. C. Burant, S. S. Iyengar, J. Tomasi, 
 M. Cossi, N. Rega, J. M. Millam, M. Klene, J. E. Knox, J. B. Cross, 
 V. Bakken, C. Adamo, J. Jaramillo, R. Gomperts, R. E. Stratmann, 
 O. Yazyev, A. J. Austin, R. Cammi, C. Pomelli, J. W. Ochterski, 
 R. L. Martin, K. Morokuma, V. G. Zakrzewski, G. A. Voth, 
 P. Salvador, J. J. Dannenberg, S. Dapprich, A. D. Daniels, 
 O. Farkas, J. B. Foresman, J. V. Ortiz, J. Cioslowski, 
 and D. J. Fox, Gaussian, Inc., Wallingford CT, 2010.
 
 ******************************************
 Gaussian 09:  EM64L-G09RevC.01 23-Sep-2011
                29-Jun-2018 
 ******************************************
 %nproc=2
 Will use up to    2 processors via shared memory.
 %mem=256MB
 %RWF=d23.rwf
 %chk=d2372
 %NoSave
 --------------------------------------
 #SP PBE1PBE/Def2TZVP geom=connectivity
 --------------------------------------
 1/38=1,57=2/1;
 2/12=2,17=6,18=5,40=1/2;
 3/5=44,7=101,11=2,16=1,25=1,30=1,74=-13/1,2,3;
 4//1;
 5/5=2,38=5/2;
 6/7=2,8=2,9=2,10=2,28=1/1;
 99/5=1,9=1/99;
 -------------
 Structure: 72
 -------------
 Charge =  0 Multiplicity = 1
 Symbolic Z-Matrix:
 H                     0.        0.        0. 
 C                     1.093     0.        0. 
 C                     1.655     1.421     0. 
 H                     1.41     -0.56     -0.885 
 H                     1.424    -0.557     0.88 
 H                     1.308     1.969    -0.883 
 Si                    3.513     1.515     0.035 
 H                     1.282     1.975     0.868 
 O                     4.122     1.597     1.565 
 O                     3.909     2.84     -0.851 
 H                     4.17      0.31     -0.532 
 H                     3.788     2.288     2.139 
 C                     5.234     3.221    -1.139 
 H                     5.206     4.09     -1.8 
 H                     5.782     2.418    -1.644 
 H                     5.779     3.492    -0.229 
 
                          Input orientation:                          
 ---------------------------------------------------------------------
 Center     Atomic      Atomic             Coordinates (Angstroms)
 Number     Number       Type             X           Y           Z
 ---------------------------------------------------------------------
      1          1           0        0.000000    0.000000    0.000000
      2          6           0        1.093000    0.000000    0.000000
      3          6           0        1.655000    1.421000    0.000000
      4          1           0        1.410000   -0.560000   -0.885000
      5          1           0        1.424000   -0.557000    0.880000
      6          1           0        1.308000    1.969000   -0.883000
      7         14           0        3.513000    1.515000    0.035000
      8          1           0        1.282000    1.975000    0.868000
      9          8           0        4.122000    1.597000    1.565000
     10          8           0        3.909000    2.840000   -0.851000
     11          1           0        4.170000    0.310000   -0.532000
     12          1           0        3.788000    2.288000    2.139000
     13          6           0        5.234000    3.221000   -1.139000
     14          1           0        5.206000    4.090000   -1.800000
     15          1           0        5.782000    2.418000   -1.644000
     16          1           0        5.779000    3.492000   -0.229000
 ---------------------------------------------------------------------
                    Distance matrix (angstroms):
                    1          2          3          4          5
     1  H    0.000000
     2  C    1.093000   0.000000
     3  C    2.181345   1.528098   0.000000
     4  H    1.756395   1.094218   2.183486   0.000000
     5  H    1.764207   1.092799   2.177210   1.765058   0.000000
     6  H    2.523393   2.168611   1.095629   2.531057   3.082580
     7  Si   3.825914   2.855320   1.860706   3.094291   3.061230
     8  H    2.509497   2.165588   1.095203   3.084740   2.536007
     9  O    4.689405   3.764900   2.926823   4.243830   3.519680
    10  O    4.906127   4.088968   2.796118   4.219734   4.550955
    11  H    4.215213   3.138001   2.800459   2.915323   3.207171
    12  H    4.915202   4.131984   3.142722   4.786498   3.907378
    13  C    6.250353   5.368430   4.164920   5.383628   5.732865
    14  H    6.860797   6.073291   4.793033   6.072013   6.563576
    15  H    6.479273   5.525955   4.552897   5.344057   5.849219
    16  H    6.755986   5.848513   4.620482   5.994764   6.048992
                    6          7          8          9         10
     6  H    0.000000
     7  Si   2.431227   0.000000
     8  H    1.751203   2.425459   0.000000
     9  O    3.748291   1.648789   2.948609   0.000000
    10  O    2.743149   1.642388   3.256427   2.725339   0.000000
    11  H    3.326639   1.484979   3.615628   2.460911   2.563354
    12  H    3.922326   2.258311   2.827268   0.958391   3.042934
    13  C    4.128743   2.692685   4.604223   3.344478   1.408450
    14  H    4.531438   3.586656   5.195115   4.325891   2.036003
    15  H    4.560416   2.963581   5.172658   3.705040   2.077273
    16  H    4.768342   3.018771   4.871109   3.091134   2.075786
                   11         12         13         14         15
    11  H    0.000000
    12  H    3.345542   0.000000
    13  C    3.158238   3.702255   0.000000
    14  H    4.119408   4.557812   1.092184   0.000000
    15  H    2.877282   4.278320   1.095508   1.775302   0.000000
    16  H    3.578521   3.319807   1.094790   1.775943   1.776432
                   16
    16  H    0.000000
 Stoichiometry    C3H10O2Si
 Framework group  C1[X(C3H10O2Si)]
 Deg. of freedom    42
 Full point group                 C1      NOp   1
 Largest Abelian subgroup         C1      NOp   1
 Largest concise Abelian subgroup C1      NOp   1
                         Standard orientation:                         
 ---------------------------------------------------------------------
 Center     Atomic      Atomic             Coordinates (Angstroms)
 Number     Number       Type             X           Y           Z
 ---------------------------------------------------------------------
      1          1           0       -3.625373   -0.821019   -0.233489
      2          6           0       -2.753774   -0.424862    0.293790
      3          6           0       -1.494763   -0.495481   -0.569338
      4          1           0       -2.646914   -1.008797    1.212983
      5          1           0       -2.980296    0.605011    0.580599
      6          1           0       -1.285547   -1.532152   -0.855599
      7         14           0        0.033647    0.191715    0.239332
      8          1           0       -1.646369    0.053814   -1.504624
      9          8           0        0.265921    1.791659   -0.084294
     10          8           0        1.279319   -0.728386   -0.307616
     11          1           0       -0.018799    0.145476    1.722664
     12          1           0        0.281268    2.060576   -1.004056
     13          6           0        2.609830   -0.584287    0.131368
     14          1           0        3.213046   -1.364885   -0.337314
     15          1           0        2.687689   -0.691105    1.218873
     16          1           0        3.020547    0.390664   -0.150321
 ---------------------------------------------------------------------
 Rotational constants (GHZ):      5.0454077      1.6500675      1.3705227
 Standard basis: def2TZVP (5D, 7F)
 There are   252 symmetry adapted basis functions of A   symmetry.
 Integral buffers will be    131072 words long.
 Raffenetti 2 integral format.
 Two-electron integral symmetry is turned on.
   252 basis functions,   404 primitive gaussians,   282 cartesian basis functions
    29 alpha electrons       29 beta electrons
       nuclear repulsion energy       325.9150110291 Hartrees.
 NAtoms=   16 NActive=   16 NUniq=   16 SFac= 1.00D+00 NAtFMM=   60 NAOKFM=F Big=F
 One-electron integrals computed using PRISM.
   1 Symmetry operations used in ECPInt.
 ECPInt:  NShTT=    5886 NPrTT=   17754 LenC2=    5728 LenP2D=   13742.
 LDataN:  DoStor=T MaxTD1= 6 Len=  172
 NBasis=   252 RedAO= T  NBF=   252
 NBsUse=   252 1.00D-06 NBFU=   252
 Harris functional with IExCor= 1009 diagonalized for initial guess.
 ExpMin= 7.01D-02 ExpMax= 4.48D+04 ExpMxC= 1.53D+03 IAcc=2 IRadAn=         4 AccDes= 0.00D+00
 HarFok:  IExCor= 1009 AccDes= 0.00D+00 IRadAn=         4 IDoV= 1
 ScaDFX=  1.000000  1.000000  1.000000  1.000000
 FoFCou: FMM=F IPFlag=           0 FMFlag=      100000 FMFlg1=           0
         NFxFlg=           0 DoJE=T BraDBF=F KetDBF=T FulRan=T
         Omega=  0.000000  0.000000  1.000000  0.000000  0.000000 ICntrl=     500 IOpCl=  0
         NMat0=    1 NMatS0=    1 NMatT0=    0 NMatD0=    1 NMtDS0=    0 NMtDT0=    0
         I1Cent=           4 NGrid=           0.
 Petite list used in FoFCou.
 Initial guess orbital symmetries:
       Occupied  (A) (A) (A) (A) (A) (A) (A) (A) (A) (A) (A) (A)
                 (A) (A) (A) (A) (A) (A) (A) (A) (A) (A) (A) (A)
                 (A) (A) (A) (A) (A)
       Virtual   (A) (A) (A) (A) (A) (A) (A) (A) (A) (A) (A) (A)
                 (A) (A) (A) (A) (A) (A) (A) (A) (A) (A) (A) (A)
                 (A) (A) (A) (A) (A) (A) (A) (A) (A) (A) (A) (A)
                 (A) (A) (A) (A) (A) (A) (A) (A) (A) (A) (A) (A)
                 (A) (A) (A) (A) (A) (A) (A) (A) (A) (A) (A) (A)
                 (A) (A) (A) (A) (A) (A) (A) (A) (A) (A) (A) (A)
                 (A) (A) (A) (A) (A) (A) (A) (A) (A) (A) (A) (A)
                 (A) (A) (A) (A) (A) (A) (A) (A) (A) (A) (A) (A)
                 (A) (A) (A) (A) (A) (A) (A) (A) (A) (A) (A) (A)
                 (A) (A) (A) (A) (A) (A) (A) (A) (A) (A) (A) (A)
                 (A) (A) (A) (A) (A) (A) (A) (A) (A) (A) (A) (A)
                 (A) (A) (A) (A) (A) (A) (A) (A) (A) (A) (A) (A)
                 (A) (A) (A) (A) (A) (A) (A) (A) (A) (A) (A) (A)
                 (A) (A) (A) (A) (A) (A) (A) (A) (A) (A) (A) (A)
                 (A) (A) (A) (A) (A) (A) (A) (A) (A) (A) (A) (A)
                 (A) (A) (A) (A) (A) (A) (A) (A) (A) (A) (A) (A)
                 (A) (A) (A) (A) (A) (A) (A) (A) (A) (A) (A) (A)
                 (A) (A) (A) (A) (A) (A) (A) (A) (A) (A) (A) (A)
                 (A) (A) (A) (A) (A) (A) (A)
 The electronic state of the initial guess is 1-A.
 Requested convergence on RMS density matrix=1.00D-08 within 128 cycles.
 Requested convergence on MAX density matrix=1.00D-06.
 Requested convergence on             energy=1.00D-06.
 No special actions if energy rises.
 Integral accuracy reduced to 1.0D-05 until final iterations.
 Initial convergence to 1.0D-05 achieved.  Increase integral accuracy.
 SCF Done:  E(RPBE1PBE) =  -560.060015956     A.U. after   12 cycles
             Convg  =    0.6908D-08             -V/T =  2.0032

 **********************************************************************

            Population analysis using the SCF density.

 **********************************************************************

 Orbital symmetries:
       Occupied  (A) (A) (A) (A) (A) (A) (A) (A) (A) (A) (A) (A)
                 (A) (A) (A) (A) (A) (A) (A) (A) (A) (A) (A) (A)
                 (A) (A) (A) (A) (A)
       Virtual   (A) (A) (A) (A) (A) (A) (A) (A) (A) (A) (A) (A)
                 (A) (A) (A) (A) (A) (A) (A) (A) (A) (A) (A) (A)
                 (A) (A) (A) (A) (A) (A) (A) (A) (A) (A) (A) (A)
                 (A) (A) (A) (A) (A) (A) (A) (A) (A) (A) (A) (A)
                 (A) (A) (A) (A) (A) (A) (A) (A) (A) (A) (A) (A)
                 (A) (A) (A) (A) (A) (A) (A) (A) (A) (A) (A) (A)
                 (A) (A) (A) (A) (A) (A) (A) (A) (A) (A) (A) (A)
                 (A) (A) (A) (A) (A) (A) (A) (A) (A) (A) (A) (A)
                 (A) (A) (A) (A) (A) (A) (A) (A) (A) (A) (A) (A)
                 (A) (A) (A) (A) (A) (A) (A) (A) (A) (A) (A) (A)
                 (A) (A) (A) (A) (A) (A) (A) (A) (A) (A) (A) (A)
                 (A) (A) (A) (A) (A) (A) (A) (A) (A) (A) (A) (A)
                 (A) (A) (A) (A) (A) (A) (A) (A) (A) (A) (A) (A)
                 (A) (A) (A) (A) (A) (A) (A) (A) (A) (A) (A) (A)
                 (A) (A) (A) (A) (A) (A) (A) (A) (A) (A) (A) (A)
                 (A) (A) (A) (A) (A) (A) (A) (A) (A) (A) (A) (A)
                 (A) (A) (A) (A) (A) (A) (A) (A) (A) (A) (A) (A)
                 (A) (A) (A) (A) (A) (A) (A) (A) (A) (A) (A) (A)
                 (A) (A) (A) (A) (A) (A) (A)
 The electronic state is 1-A.
 Alpha  occ. eigenvalues --  -66.25386 -19.20254 -19.19998 -10.26422 -10.21484
 Alpha  occ. eigenvalues --  -10.20774  -5.33052  -3.66579  -3.66460  -3.66327
 Alpha  occ. eigenvalues --   -1.04427  -1.02285  -0.78062  -0.70583  -0.63693
 Alpha  occ. eigenvalues --   -0.56895  -0.50953  -0.46863  -0.46290  -0.45791
 Alpha  occ. eigenvalues --   -0.44676  -0.39973  -0.38558  -0.37925  -0.36256
 Alpha  occ. eigenvalues --   -0.35486  -0.31850  -0.30469  -0.29662
 Alpha virt. eigenvalues --    0.03121   0.04546   0.05815   0.07033   0.09941
 Alpha virt. eigenvalues --    0.09993   0.11725   0.12000   0.12635   0.12835
 Alpha virt. eigenvalues --    0.13328   0.14644   0.16303   0.17212   0.18854
 Alpha virt. eigenvalues --    0.22087   0.22578   0.23650   0.24929   0.25642
 Alpha virt. eigenvalues --    0.25835   0.28148   0.29147   0.30050   0.32034
 Alpha virt. eigenvalues --    0.34435   0.37980   0.39085   0.39374   0.40587
 Alpha virt. eigenvalues --    0.42041   0.42425   0.43731   0.44281   0.44721
 Alpha virt. eigenvalues --    0.46267   0.46683   0.48052   0.49084   0.51081
 Alpha virt. eigenvalues --    0.51320   0.53718   0.54480   0.56934   0.58644
 Alpha virt. eigenvalues --    0.60961   0.63494   0.64582   0.67469   0.67819
 Alpha virt. eigenvalues --    0.71829   0.73573   0.76945   0.78552   0.79748
 Alpha virt. eigenvalues --    0.82786   0.85713   0.86812   0.88166   0.90319
 Alpha virt. eigenvalues --    0.93928   0.94486   0.99170   0.99762   1.02490
 Alpha virt. eigenvalues --    1.05059   1.05903   1.06462   1.08119   1.09180
 Alpha virt. eigenvalues --    1.11322   1.14018   1.15373   1.22305   1.24353
 Alpha virt. eigenvalues --    1.26069   1.27480   1.31443   1.39032   1.40276
 Alpha virt. eigenvalues --    1.42775   1.45608   1.48301   1.49333   1.50804
 Alpha virt. eigenvalues --    1.52965   1.55307   1.55361   1.57215   1.57482
 Alpha virt. eigenvalues --    1.59741   1.60597   1.63395   1.64399   1.64787
 Alpha virt. eigenvalues --    1.67746   1.71899   1.75305   1.78269   1.79546
 Alpha virt. eigenvalues --    1.80869   1.83015   1.86456   1.87887   1.90442
 Alpha virt. eigenvalues --    1.94527   1.95577   1.98592   2.01042   2.02987
 Alpha virt. eigenvalues --    2.04216   2.09141   2.10491   2.12238   2.15675
 Alpha virt. eigenvalues --    2.16943   2.20485   2.24069   2.26251   2.30809
 Alpha virt. eigenvalues --    2.32740   2.33167   2.33849   2.35371   2.35880
 Alpha virt. eigenvalues --    2.37316   2.40594   2.42291   2.46203   2.48727
 Alpha virt. eigenvalues --    2.51643   2.53332   2.54561   2.56988   2.58347
 Alpha virt. eigenvalues --    2.59815   2.60656   2.66591   2.68220   2.69351
 Alpha virt. eigenvalues --    2.71445   2.75023   2.77927   2.82895   2.86795
 Alpha virt. eigenvalues --    2.87958   2.92303   2.97538   2.99855   3.01635
 Alpha virt. eigenvalues --    3.04214   3.09443   3.09615   3.13152   3.15440
 Alpha virt. eigenvalues --    3.19888   3.22891   3.23733   3.28467   3.31149
 Alpha virt. eigenvalues --    3.32539   3.33505   3.35281   3.39090   3.43253
 Alpha virt. eigenvalues --    3.44457   3.46833   3.50819   3.53899   3.55034
 Alpha virt. eigenvalues --    3.58419   3.60303   3.63387   3.67201   3.76952
 Alpha virt. eigenvalues --    3.81493   3.86289   3.92397   3.95963   4.02566
 Alpha virt. eigenvalues --    4.19033   4.24372   4.25034   4.34947   4.37062
 Alpha virt. eigenvalues --    4.41670   4.46959   4.54701   4.55706   4.79063
 Alpha virt. eigenvalues --    5.15580   5.16897   5.17854   5.18103   5.28173
 Alpha virt. eigenvalues --    5.28911   5.38772   5.41834   5.45372   5.49981
 Alpha virt. eigenvalues --    5.80056   5.86624   6.02311   6.22587   6.38260
 Alpha virt. eigenvalues --    6.41913   6.53427   6.58170   6.60217   6.66152
 Alpha virt. eigenvalues --    6.67690   6.79213   6.82322   6.98252   7.06009
 Alpha virt. eigenvalues --    7.15782   7.22721  11.89114  22.36813  22.40016
 Alpha virt. eigenvalues --   22.45447  43.63292  43.91564
          Condensed to atoms (all electrons):
              1          2          3          4          5          6
     1  H    0.560567   0.412545  -0.035285  -0.027393  -0.028501  -0.007362
     2  C    0.412545   4.908565   0.314433   0.411715   0.408496  -0.030186
     3  C   -0.035285   0.314433   5.074169  -0.037521  -0.040167   0.370570
     4  H   -0.027393   0.411715  -0.037521   0.553798  -0.024334  -0.004617
     5  H   -0.028501   0.408496  -0.040167  -0.024334   0.554780   0.008112
     6  H   -0.007362  -0.030186   0.370570  -0.004617   0.008112   0.562932
     7  Si   0.006790  -0.019449   0.410522  -0.008305  -0.005199  -0.012790
     8  H   -0.007423  -0.031184   0.375917   0.007983  -0.003996  -0.022684
     9  O   -0.000216  -0.002526  -0.042055  -0.000098   0.002117   0.002186
    10  O   -0.000090   0.001349  -0.034973   0.000039   0.000088   0.004129
    11  H    0.000022   0.006666  -0.046748   0.001593   0.000619   0.002071
    12  H    0.000015  -0.000180  -0.003457   0.000011  -0.000019  -0.000002
    13  C    0.000009  -0.000180   0.002351  -0.000013   0.000003   0.000270
    14  H    0.000000  -0.000007  -0.000064   0.000001   0.000000  -0.000106
    15  H    0.000002   0.000077  -0.000291   0.000015  -0.000004  -0.000023
    16  H    0.000000  -0.000010   0.000463  -0.000002  -0.000001   0.000059
              7          8          9         10         11         12
     1  H    0.006790  -0.007423  -0.000216  -0.000090   0.000022   0.000015
     2  C   -0.019449  -0.031184  -0.002526   0.001349   0.006666  -0.000180
     3  C    0.410522   0.375917  -0.042055  -0.034973  -0.046748  -0.003457
     4  H   -0.008305   0.007983  -0.000098   0.000039   0.001593   0.000011
     5  H   -0.005199  -0.003996   0.002117   0.000088   0.000619  -0.000019
     6  H   -0.012790  -0.022684   0.002186   0.004129   0.002071  -0.000002
     7  Si  11.870379  -0.022443   0.476988   0.463409   0.389721  -0.026969
     8  H   -0.022443   0.595166   0.000343   0.000854   0.002473   0.002315
     9  O    0.476988   0.000343   7.845529  -0.033566  -0.017239   0.299749
    10  O    0.463409   0.000854  -0.033566   7.837889  -0.027439  -0.001126
    11  H    0.389721   0.002473  -0.017239  -0.027439   0.745386   0.004093
    12  H   -0.026969   0.002315   0.299749  -0.001126   0.004093   0.405673
    13  C   -0.050216  -0.000076  -0.008118   0.259103   0.001478   0.000825
    14  H    0.006835   0.000012   0.000070  -0.039894  -0.000269   0.000024
    15  H   -0.014135  -0.000007  -0.000651  -0.043398   0.010200  -0.000069
    16  H   -0.006127   0.000030   0.006762  -0.044006  -0.002044   0.000356
             13         14         15         16
     1  H    0.000009   0.000000   0.000002   0.000000
     2  C   -0.000180  -0.000007   0.000077  -0.000010
     3  C    0.002351  -0.000064  -0.000291   0.000463
     4  H   -0.000013   0.000001   0.000015  -0.000002
     5  H    0.000003   0.000000  -0.000004  -0.000001
     6  H    0.000270  -0.000106  -0.000023   0.000059
     7  Si  -0.050216   0.006835  -0.014135  -0.006127
     8  H   -0.000076   0.000012  -0.000007   0.000030
     9  O   -0.008118   0.000070  -0.000651   0.006762
    10  O    0.259103  -0.039894  -0.043398  -0.044006
    11  H    0.001478  -0.000269   0.010200  -0.002044
    12  H    0.000825   0.000024  -0.000069   0.000356
    13  C    4.769878   0.402156   0.416443   0.413162
    14  H    0.402156   0.567112  -0.031105  -0.033376
    15  H    0.416443  -0.031105   0.592735  -0.047569
    16  H    0.413162  -0.033376  -0.047569   0.592769
 Mulliken atomic charges:
              1
     1  H    0.126320
     2  C   -0.380123
     3  C   -0.307864
     4  H    0.127129
     5  H    0.128004
     6  H    0.127440
     7  Si   0.540989
     8  H    0.102720
     9  O   -0.529275
    10  O   -0.342367
    11  H   -0.070584
    12  H    0.318760
    13  C   -0.207076
    14  H    0.128610
    15  H    0.117781
    16  H    0.119535
 Sum of Mulliken atomic charges =   0.00000
 Mulliken charges with hydrogens summed into heavy atoms:
              1
     2  C    0.001330
     3  C   -0.077703
     7  Si   0.470405
     9  O   -0.210515
    10  O   -0.342367
    13  C    0.158850
 Sum of Mulliken charges with hydrogens summed into heavy atoms =   0.00000
 Electronic spatial extent (au):  <R**2>=            935.7102
 Charge=              0.0000 electrons
 Dipole moment (field-independent basis, Debye):
    X=              0.1503    Y=             -0.0796    Z=             -1.1002  Tot=              1.1133
 Quadrupole moment (field-independent basis, Debye-Ang):
   XX=            -41.4754   YY=            -46.7700   ZZ=            -44.2355
   XY=             -0.0185   XZ=              0.7460   YZ=             -4.1740
 Traceless Quadrupole moment (field-independent basis, Debye-Ang):
   XX=              2.6849   YY=             -2.6097   ZZ=             -0.0752
   XY=             -0.0185   XZ=              0.7460   YZ=             -4.1740
 Octapole moment (field-independent basis, Debye-Ang**2):
  XXX=             20.3147  YYY=              2.0575  ZZZ=             -7.5498  XYY=              1.6410
  XXY=             -1.2966  XXZ=             -0.9416  XZZ=              2.9218  YZZ=              5.8418
  YYZ=             -8.7691  XYZ=             -1.6542
 Hexadecapole moment (field-independent basis, Debye-Ang**3):
 XXXX=           -865.4273 YYYY=           -247.3993 ZZZZ=           -124.7987 XXXY=            -11.6104
 XXXZ=              2.7054 YYYX=             -3.1768 YYYZ=            -18.2838 ZZZX=              0.2488
 ZZZY=             -9.7928 XXYY=           -185.0179 XXZZ=           -169.7684 YYZZ=            -51.9392
 XXYZ=              0.0327 YYXZ=             -4.2967 ZZXY=              0.2422
 N-N= 3.259150110291D+02 E-N=-1.975851843624D+03  KE= 5.582479629806D+02
 1\1\GINC-TARSUS2\SP\RPBE1PBE\def2TZVP\C3H10O2Si1\RENATO\29-Jun-2018\0\
 \#SP PBE1PBE/Def2TZVP geom=connectivity\\Structure: 72\\0,1\H,0,0.,0.,
 0.\C,0,1.093,0.,0.\C,0,1.655,1.421,0.\H,0,1.41,-0.56,-0.885\H,0,1.424,
 -0.557,0.88\H,0,1.308,1.969,-0.883\Si,0,3.513,1.515,0.035\H,0,1.282,1.
 975,0.868\O,0,4.122,1.597,1.565\O,0,3.909,2.84,-0.851\H,0,4.17,0.31,-0
 .532\H,0,3.788,2.288,2.139\C,0,5.234,3.221,-1.139\H,0,5.206,4.09,-1.8\
 H,0,5.782,2.418,-1.644\H,0,5.779,3.492,-0.229\\Version=EM64L-G09RevC.0
 1\State=1-A\HF=-560.060016\RMSD=6.908e-09\Dipole=-0.1730335,0.3852968,
 0.1159961\Quadrupole=0.3350207,-0.9165337,0.581513,2.0513395,-2.124058
 3,2.1093706\PG=C01 [X(C3H10O2Si1)]\\@


 WAR ES EIN GOTT DER DIESE ZEICHEN SCHRIEB?
          - LUDWIG BOLTZMANN, QUOTING GOETHE, ABOUT MAXWELL'S EQUATIONS.
 Job cpu time:  0 days  0 hours  7 minutes 46.6 seconds.
 File lengths (MBytes):  RWF=     40 Int=      0 D2E=      0 Chk=      3 Scr=      1
 Normal termination of Gaussian 09 at Fri Jun 29 15:09:38 2018.
