 Entering Gaussian System, Link 0=g09
 Initial command:
 /usr/local/gaussian09/g09/l1.exe /scratch/renato/Gau-32131.inp -scrdir=/scratch/renato/
 Entering Link 1 = /usr/local/gaussian09/g09/l1.exe PID=     32133.
  
 Copyright (c) 1988,1990,1992,1993,1995,1998,2003,2009,2011,
            Gaussian, Inc.  All Rights Reserved.
  
 This is part of the Gaussian(R) 09 program.  It is based on
 the Gaussian(R) 03 system (copyright 2003, Gaussian, Inc.),
 the Gaussian(R) 98 system (copyright 1998, Gaussian, Inc.),
 the Gaussian(R) 94 system (copyright 1995, Gaussian, Inc.),
 the Gaussian 92(TM) system (copyright 1992, Gaussian, Inc.),
 the Gaussian 90(TM) system (copyright 1990, Gaussian, Inc.),
 the Gaussian 88(TM) system (copyright 1988, Gaussian, Inc.),
 the Gaussian 86(TM) system (copyright 1986, Carnegie Mellon
 University), and the Gaussian 82(TM) system (copyright 1983,
 Carnegie Mellon University). Gaussian is a federally registered
 trademark of Gaussian, Inc.
  
 This software contains proprietary and confidential information,
 including trade secrets, belonging to Gaussian, Inc.
  
 This software is provided under written license and may be
 used, copied, transmitted, or stored only in accord with that
 written license.
  
 The following legend is applicable only to US Government
 contracts under FAR:
  
                    RESTRICTED RIGHTS LEGEND
  
 Use, reproduction and disclosure by the US Government is
 subject to restrictions as set forth in subparagraphs (a)
 and (c) of the Commercial Computer Software - Restricted
 Rights clause in FAR 52.227-19.
  
 Gaussian, Inc.
 340 Quinnipiac St., Bldg. 40, Wallingford CT 06492
  
  
 ---------------------------------------------------------------
 Warning -- This program may not be used in any manner that
 competes with the business of Gaussian, Inc. or will provide
 assistance to any competitor of Gaussian, Inc.  The licensee
 of this program is prohibited from giving any competitor of
 Gaussian, Inc. access to this program.  By using this program,
 the user acknowledges that Gaussian, Inc. is engaged in the
 business of creating and licensing software in the field of
 computational chemistry and represents and warrants to the
 licensee that it is not a competitor of Gaussian, Inc. and that
 it will not use this program in any manner prohibited above.
 ---------------------------------------------------------------
  

 Cite this work as:
 Gaussian 09, Revision C.01,
 M. J. Frisch, G. W. Trucks, H. B. Schlegel, G. E. Scuseria, 
 M. A. Robb, J. R. Cheeseman, G. Scalmani, V. Barone, B. Mennucci, 
 G. A. Petersson, H. Nakatsuji, M. Caricato, X. Li, H. P. Hratchian, 
 A. F. Izmaylov, J. Bloino, G. Zheng, J. L. Sonnenberg, M. Hada, 
 M. Ehara, K. Toyota, R. Fukuda, J. Hasegawa, M. Ishida, T. Nakajima, 
 Y. Honda, O. Kitao, H. Nakai, T. Vreven, J. A. Montgomery, Jr., 
 J. E. Peralta, F. Ogliaro, M. Bearpark, J. J. Heyd, E. Brothers, 
 K. N. Kudin, V. N. Staroverov, T. Keith, R. Kobayashi, J. Normand, 
 K. Raghavachari, A. Rendell, J. C. Burant, S. S. Iyengar, J. Tomasi, 
 M. Cossi, N. Rega, J. M. Millam, M. Klene, J. E. Knox, J. B. Cross, 
 V. Bakken, C. Adamo, J. Jaramillo, R. Gomperts, R. E. Stratmann, 
 O. Yazyev, A. J. Austin, R. Cammi, C. Pomelli, J. W. Ochterski, 
 R. L. Martin, K. Morokuma, V. G. Zakrzewski, G. A. Voth, 
 P. Salvador, J. J. Dannenberg, S. Dapprich, A. D. Daniels, 
 O. Farkas, J. B. Foresman, J. V. Ortiz, J. Cioslowski, 
 and D. J. Fox, Gaussian, Inc., Wallingford CT, 2010.
 
 ******************************************
 Gaussian 09:  EM64L-G09RevC.01 23-Sep-2011
                29-Jun-2018 
 ******************************************
 %nproc=2
 Will use up to    2 processors via shared memory.
 %mem=256MB
 %RWF=d23.rwf
 %chk=d2374
 %NoSave
 --------------------------------------
 #SP PBE1PBE/Def2TZVP geom=connectivity
 --------------------------------------
 1/38=1,57=2/1;
 2/12=2,17=6,18=5,40=1/2;
 3/5=44,7=101,11=2,16=1,25=1,30=1,74=-13/1,2,3;
 4//1;
 5/5=2,38=5/2;
 6/7=2,8=2,9=2,10=2,28=1/1;
 99/5=1,9=1/99;
 -------------
 Structure: 74
 -------------
 Charge =  0 Multiplicity = 1
 Symbolic Z-Matrix:
 H                     0.        0.        0. 
 C                     1.093     0.        0. 
 C                     1.655     1.421     0. 
 H                     1.41     -0.56     -0.885 
 H                     1.424    -0.557     0.88 
 H                     1.308     1.969    -0.883 
 Si                    3.513     1.515     0.035 
 H                     1.282     1.975     0.868 
 O                     4.128     1.492     1.565 
 O                     3.904     2.899    -0.758 
 H                     4.17      0.353    -0.617 
 H                     3.794     2.14      2.186 
 C                     5.228     3.302    -1.023 
 H                     5.197     4.214    -1.623 
 H                     5.775     2.536    -1.585 
 H                     5.776     3.509    -0.099 
 
                          Input orientation:                          
 ---------------------------------------------------------------------
 Center     Atomic      Atomic             Coordinates (Angstroms)
 Number     Number       Type             X           Y           Z
 ---------------------------------------------------------------------
      1          1           0        0.000000    0.000000    0.000000
      2          6           0        1.093000    0.000000    0.000000
      3          6           0        1.655000    1.421000    0.000000
      4          1           0        1.410000   -0.560000   -0.885000
      5          1           0        1.424000   -0.557000    0.880000
      6          1           0        1.308000    1.969000   -0.883000
      7         14           0        3.513000    1.515000    0.035000
      8          1           0        1.282000    1.975000    0.868000
      9          8           0        4.128000    1.492000    1.565000
     10          8           0        3.904000    2.899000   -0.758000
     11          1           0        4.170000    0.353000   -0.617000
     12          1           0        3.794000    2.140000    2.186000
     13          6           0        5.228000    3.302000   -1.023000
     14          1           0        5.197000    4.214000   -1.623000
     15          1           0        5.775000    2.536000   -1.585000
     16          1           0        5.776000    3.509000   -0.099000
 ---------------------------------------------------------------------
                    Distance matrix (angstroms):
                    1          2          3          4          5
     1  H    0.000000
     2  C    1.093000   0.000000
     3  C    2.181345   1.528098   0.000000
     4  H    1.756395   1.094218   2.183486   0.000000
     5  H    1.764207   1.092799   2.177210   1.765058   0.000000
     6  H    2.523393   2.168611   1.095629   2.531057   3.082580
     7  Si   3.825914   2.855320   1.860706   3.094291   3.061230
     8  H    2.509497   2.165588   1.095203   3.084740   2.536007
     9  O    4.660008   3.726461   2.927455   4.195322   3.461104
    10  O    4.921380   4.108587   2.795899   4.266245   4.558221
    11  H    4.230153   3.158042   2.801167   2.919417   3.257242
    12  H    4.873667   4.080882   3.141795   4.733339   3.820516
    13  C    6.267513   5.389616   4.165455   5.432422   5.743144
    14  H    6.884819   6.102028   4.793823   6.138167   6.577460
    15  H    6.503395   5.555596   4.553005   5.397077   5.879972
    16  H    6.759072   5.852638   4.620843   6.019677   6.035785
                    6          7          8          9         10
     6  H    0.000000
     7  Si   2.431227   0.000000
     8  H    1.751203   2.425459   0.000000
     9  O    3.764656   1.649137   2.969649   0.000000
    10  O    2.760388   1.642311   3.220642   2.725097   0.000000
    11  H    3.297462   1.485597   3.629966   2.461749   2.563738
    12  H    3.953252   2.257518   2.841565   0.957654   3.042255
    13  C    4.142812   2.693317   4.572497   3.344225   1.409117
    14  H    4.551038   3.587398   5.152225   4.326129   2.036983
    15  H    4.557234   2.963694   5.149658   3.704733   2.077580
    16  H    4.790541   3.019132   4.846058   3.090807   2.076238
                   11         12         13         14         15
    11  H    0.000000
    12  H    3.345378   0.000000
    13  C    3.159241   3.701929   0.000000
    14  H    4.119962   4.558329   1.092110   0.000000
    15  H    2.877245   4.278039   1.096270   1.775165   0.000000
    16  H    3.578812   3.320197   1.094043   1.776187   1.776211
                   16
    16  H    0.000000
 Stoichiometry    C3H10O2Si
 Framework group  C1[X(C3H10O2Si)]
 Deg. of freedom    42
 Full point group                 C1      NOp   1
 Largest Abelian subgroup         C1      NOp   1
 Largest concise Abelian subgroup C1      NOp   1
                         Standard orientation:                         
 ---------------------------------------------------------------------
 Center     Atomic      Atomic             Coordinates (Angstroms)
 Number     Number       Type             X           Y           Z
 ---------------------------------------------------------------------
      1          1           0       -3.627954   -0.815221   -0.234255
      2          6           0       -2.761611   -0.393915    0.282078
      3          6           0       -1.486684   -0.541035   -0.547381
      4          1           0       -2.681394   -0.912935    1.242024
      5          1           0       -2.979342    0.656379    0.491086
      6          1           0       -1.286360   -1.597853   -0.755729
      7         14           0        0.034728    0.182112    0.242930
      8          1           0       -1.611797   -0.057135   -1.521884
      9          8           0        0.239353    1.781413   -0.103505
     10          8           0        1.292156   -0.724451   -0.299475
     11          1           0       -0.007991    0.154804    1.727661
     12          1           0        0.243516    2.037317   -1.026326
     13          6           0        2.623501   -0.552189    0.128844
     14          1           0        3.236937   -1.329496   -0.331800
     15          1           0        2.708899   -0.643480    1.217964
     16          1           0        3.015986    0.425188   -0.167162
 ---------------------------------------------------------------------
 Rotational constants (GHZ):      5.1234292      1.6431229      1.3682599
 Standard basis: def2TZVP (5D, 7F)
 There are   252 symmetry adapted basis functions of A   symmetry.
 Integral buffers will be    131072 words long.
 Raffenetti 2 integral format.
 Two-electron integral symmetry is turned on.
   252 basis functions,   404 primitive gaussians,   282 cartesian basis functions
    29 alpha electrons       29 beta electrons
       nuclear repulsion energy       325.9243285354 Hartrees.
 NAtoms=   16 NActive=   16 NUniq=   16 SFac= 1.00D+00 NAtFMM=   60 NAOKFM=F Big=F
 One-electron integrals computed using PRISM.
   1 Symmetry operations used in ECPInt.
 ECPInt:  NShTT=    5886 NPrTT=   17754 LenC2=    5729 LenP2D=   13748.
 LDataN:  DoStor=T MaxTD1= 6 Len=  172
 NBasis=   252 RedAO= T  NBF=   252
 NBsUse=   252 1.00D-06 NBFU=   252
 Harris functional with IExCor= 1009 diagonalized for initial guess.
 ExpMin= 7.01D-02 ExpMax= 4.48D+04 ExpMxC= 1.53D+03 IAcc=2 IRadAn=         4 AccDes= 0.00D+00
 HarFok:  IExCor= 1009 AccDes= 0.00D+00 IRadAn=         4 IDoV= 1
 ScaDFX=  1.000000  1.000000  1.000000  1.000000
 FoFCou: FMM=F IPFlag=           0 FMFlag=      100000 FMFlg1=           0
         NFxFlg=           0 DoJE=T BraDBF=F KetDBF=T FulRan=T
         Omega=  0.000000  0.000000  1.000000  0.000000  0.000000 ICntrl=     500 IOpCl=  0
         NMat0=    1 NMatS0=    1 NMatT0=    0 NMatD0=    1 NMtDS0=    0 NMtDT0=    0
         I1Cent=           4 NGrid=           0.
 Petite list used in FoFCou.
 Initial guess orbital symmetries:
       Occupied  (A) (A) (A) (A) (A) (A) (A) (A) (A) (A) (A) (A)
                 (A) (A) (A) (A) (A) (A) (A) (A) (A) (A) (A) (A)
                 (A) (A) (A) (A) (A)
       Virtual   (A) (A) (A) (A) (A) (A) (A) (A) (A) (A) (A) (A)
                 (A) (A) (A) (A) (A) (A) (A) (A) (A) (A) (A) (A)
                 (A) (A) (A) (A) (A) (A) (A) (A) (A) (A) (A) (A)
                 (A) (A) (A) (A) (A) (A) (A) (A) (A) (A) (A) (A)
                 (A) (A) (A) (A) (A) (A) (A) (A) (A) (A) (A) (A)
                 (A) (A) (A) (A) (A) (A) (A) (A) (A) (A) (A) (A)
                 (A) (A) (A) (A) (A) (A) (A) (A) (A) (A) (A) (A)
                 (A) (A) (A) (A) (A) (A) (A) (A) (A) (A) (A) (A)
                 (A) (A) (A) (A) (A) (A) (A) (A) (A) (A) (A) (A)
                 (A) (A) (A) (A) (A) (A) (A) (A) (A) (A) (A) (A)
                 (A) (A) (A) (A) (A) (A) (A) (A) (A) (A) (A) (A)
                 (A) (A) (A) (A) (A) (A) (A) (A) (A) (A) (A) (A)
                 (A) (A) (A) (A) (A) (A) (A) (A) (A) (A) (A) (A)
                 (A) (A) (A) (A) (A) (A) (A) (A) (A) (A) (A) (A)
                 (A) (A) (A) (A) (A) (A) (A) (A) (A) (A) (A) (A)
                 (A) (A) (A) (A) (A) (A) (A) (A) (A) (A) (A) (A)
                 (A) (A) (A) (A) (A) (A) (A) (A) (A) (A) (A) (A)
                 (A) (A) (A) (A) (A) (A) (A) (A) (A) (A) (A) (A)
                 (A) (A) (A) (A) (A) (A) (A)
 The electronic state of the initial guess is 1-A.
 Requested convergence on RMS density matrix=1.00D-08 within 128 cycles.
 Requested convergence on MAX density matrix=1.00D-06.
 Requested convergence on             energy=1.00D-06.
 No special actions if energy rises.
 Integral accuracy reduced to 1.0D-05 until final iterations.
 Initial convergence to 1.0D-05 achieved.  Increase integral accuracy.
 SCF Done:  E(RPBE1PBE) =  -560.060238102     A.U. after   12 cycles
             Convg  =    0.6641D-08             -V/T =  2.0033

 **********************************************************************

            Population analysis using the SCF density.

 **********************************************************************

 Orbital symmetries:
       Occupied  (A) (A) (A) (A) (A) (A) (A) (A) (A) (A) (A) (A)
                 (A) (A) (A) (A) (A) (A) (A) (A) (A) (A) (A) (A)
                 (A) (A) (A) (A) (A)
       Virtual   (A) (A) (A) (A) (A) (A) (A) (A) (A) (A) (A) (A)
                 (A) (A) (A) (A) (A) (A) (A) (A) (A) (A) (A) (A)
                 (A) (A) (A) (A) (A) (A) (A) (A) (A) (A) (A) (A)
                 (A) (A) (A) (A) (A) (A) (A) (A) (A) (A) (A) (A)
                 (A) (A) (A) (A) (A) (A) (A) (A) (A) (A) (A) (A)
                 (A) (A) (A) (A) (A) (A) (A) (A) (A) (A) (A) (A)
                 (A) (A) (A) (A) (A) (A) (A) (A) (A) (A) (A) (A)
                 (A) (A) (A) (A) (A) (A) (A) (A) (A) (A) (A) (A)
                 (A) (A) (A) (A) (A) (A) (A) (A) (A) (A) (A) (A)
                 (A) (A) (A) (A) (A) (A) (A) (A) (A) (A) (A) (A)
                 (A) (A) (A) (A) (A) (A) (A) (A) (A) (A) (A) (A)
                 (A) (A) (A) (A) (A) (A) (A) (A) (A) (A) (A) (A)
                 (A) (A) (A) (A) (A) (A) (A) (A) (A) (A) (A) (A)
                 (A) (A) (A) (A) (A) (A) (A) (A) (A) (A) (A) (A)
                 (A) (A) (A) (A) (A) (A) (A) (A) (A) (A) (A) (A)
                 (A) (A) (A) (A) (A) (A) (A) (A) (A) (A) (A) (A)
                 (A) (A) (A) (A) (A) (A) (A) (A) (A) (A) (A) (A)
                 (A) (A) (A) (A) (A) (A) (A) (A) (A) (A) (A) (A)
                 (A) (A) (A) (A) (A) (A) (A)
 The electronic state is 1-A.
 Alpha  occ. eigenvalues --  -66.25393 -19.20253 -19.19992 -10.26430 -10.21482
 Alpha  occ. eigenvalues --  -10.20794  -5.33056  -3.66583  -3.66464  -3.66331
 Alpha  occ. eigenvalues --   -1.04412  -1.02289  -0.78068  -0.70587  -0.63697
 Alpha  occ. eigenvalues --   -0.56896  -0.50931  -0.46873  -0.46270  -0.45802
 Alpha  occ. eigenvalues --   -0.44697  -0.39921  -0.38558  -0.37982  -0.36227
 Alpha  occ. eigenvalues --   -0.35525  -0.31861  -0.30471  -0.29654
 Alpha virt. eigenvalues --    0.03109   0.04559   0.05866   0.07033   0.09901
 Alpha virt. eigenvalues --    0.10037   0.11710   0.12098   0.12581   0.12897
 Alpha virt. eigenvalues --    0.13312   0.14657   0.16305   0.17132   0.18812
 Alpha virt. eigenvalues --    0.22055   0.22625   0.23475   0.24800   0.25558
 Alpha virt. eigenvalues --    0.25816   0.28254   0.29271   0.30046   0.31963
 Alpha virt. eigenvalues --    0.34395   0.37746   0.39129   0.39317   0.40735
 Alpha virt. eigenvalues --    0.42063   0.42487   0.43683   0.44527   0.44697
 Alpha virt. eigenvalues --    0.46333   0.46629   0.48034   0.49126   0.50915
 Alpha virt. eigenvalues --    0.51371   0.53755   0.54574   0.57187   0.58531
 Alpha virt. eigenvalues --    0.61047   0.63507   0.64494   0.67456   0.67589
 Alpha virt. eigenvalues --    0.72002   0.73680   0.77086   0.77766   0.79727
 Alpha virt. eigenvalues --    0.82942   0.85562   0.87071   0.88048   0.90361
 Alpha virt. eigenvalues --    0.93899   0.94596   0.99039   0.99993   1.02906
 Alpha virt. eigenvalues --    1.05056   1.06000   1.06208   1.08061   1.09056
 Alpha virt. eigenvalues --    1.11525   1.14155   1.15129   1.22318   1.23921
 Alpha virt. eigenvalues --    1.26320   1.27541   1.31537   1.38781   1.40176
 Alpha virt. eigenvalues --    1.42864   1.45512   1.48220   1.49379   1.50928
 Alpha virt. eigenvalues --    1.52945   1.55282   1.55405   1.57181   1.57702
 Alpha virt. eigenvalues --    1.59937   1.60669   1.63336   1.64089   1.64642
 Alpha virt. eigenvalues --    1.67760   1.72043   1.75365   1.78354   1.79752
 Alpha virt. eigenvalues --    1.80500   1.83149   1.86402   1.87646   1.90470
 Alpha virt. eigenvalues --    1.94420   1.96166   1.98994   2.00873   2.02800
 Alpha virt. eigenvalues --    2.04176   2.08937   2.10537   2.12472   2.15781
 Alpha virt. eigenvalues --    2.16741   2.20437   2.24206   2.26526   2.30863
 Alpha virt. eigenvalues --    2.32801   2.33100   2.34051   2.35257   2.35864
 Alpha virt. eigenvalues --    2.37318   2.40687   2.42284   2.46360   2.48717
 Alpha virt. eigenvalues --    2.51101   2.53180   2.54450   2.57118   2.58254
 Alpha virt. eigenvalues --    2.59813   2.60825   2.66581   2.68111   2.69387
 Alpha virt. eigenvalues --    2.71520   2.75757   2.78129   2.82785   2.86711
 Alpha virt. eigenvalues --    2.87657   2.92310   2.97594   2.99993   3.01366
 Alpha virt. eigenvalues --    3.04456   3.09333   3.09640   3.13415   3.15533
 Alpha virt. eigenvalues --    3.19700   3.22791   3.23706   3.28127   3.31086
 Alpha virt. eigenvalues --    3.32461   3.33376   3.35496   3.39144   3.43017
 Alpha virt. eigenvalues --    3.44423   3.46654   3.50742   3.53845   3.55198
 Alpha virt. eigenvalues --    3.58444   3.60168   3.63359   3.67599   3.76923
 Alpha virt. eigenvalues --    3.81421   3.86295   3.92293   3.96062   4.02859
 Alpha virt. eigenvalues --    4.19041   4.24295   4.25158   4.34896   4.37040
 Alpha virt. eigenvalues --    4.41710   4.46923   4.54753   4.55914   4.79105
 Alpha virt. eigenvalues --    5.15564   5.16907   5.17861   5.18115   5.28180
 Alpha virt. eigenvalues --    5.28933   5.38719   5.41818   5.45405   5.50076
 Alpha virt. eigenvalues --    5.79971   5.86499   6.02344   6.22798   6.38049
 Alpha virt. eigenvalues --    6.41924   6.53448   6.58133   6.60219   6.66158
 Alpha virt. eigenvalues --    6.67644   6.79268   6.82282   6.98081   7.06109
 Alpha virt. eigenvalues --    7.15817   7.22702  11.89315  22.36959  22.39875
 Alpha virt. eigenvalues --   22.45412  43.63660  43.91755
          Condensed to atoms (all electrons):
              1          2          3          4          5          6
     1  H    0.559925   0.412812  -0.035629  -0.027345  -0.028398  -0.007342
     2  C    0.412812   4.911501   0.313482   0.411610   0.408239  -0.030432
     3  C   -0.035629   0.313482   5.071025  -0.037410  -0.039974   0.370647
     4  H   -0.027345   0.411610  -0.037410   0.553392  -0.024265  -0.004577
     5  H   -0.028398   0.408239  -0.039974  -0.024265   0.554457   0.008137
     6  H   -0.007342  -0.030432   0.370647  -0.004577   0.008137   0.563541
     7  Si   0.006989  -0.021231   0.412742  -0.008206  -0.005279  -0.012738
     8  H   -0.007315  -0.031736   0.376833   0.007978  -0.003993  -0.022421
     9  O   -0.000211  -0.003083  -0.041194  -0.000111   0.002547   0.002241
    10  O   -0.000085   0.001401  -0.034546   0.000027   0.000101   0.003952
    11  H   -0.000007   0.006530  -0.046166   0.001783   0.000531   0.001898
    12  H    0.000014  -0.000146  -0.003402   0.000014  -0.000025  -0.000002
    13  C    0.000009  -0.000179   0.002227  -0.000009   0.000003   0.000235
    14  H    0.000000  -0.000008  -0.000081   0.000001   0.000000  -0.000096
    15  H    0.000002   0.000069  -0.000232   0.000014  -0.000004  -0.000040
    16  H    0.000000  -0.000004   0.000476  -0.000002  -0.000001   0.000058
              7          8          9         10         11         12
     1  H    0.006989  -0.007315  -0.000211  -0.000085  -0.000007   0.000014
     2  C   -0.021231  -0.031736  -0.003083   0.001401   0.006530  -0.000146
     3  C    0.412742   0.376833  -0.041194  -0.034546  -0.046166  -0.003402
     4  H   -0.008206   0.007978  -0.000111   0.000027   0.001783   0.000014
     5  H   -0.005279  -0.003993   0.002547   0.000101   0.000531  -0.000025
     6  H   -0.012738  -0.022421   0.002241   0.003952   0.001898  -0.000002
     7  Si  11.872499  -0.022328   0.475512   0.463356   0.388909  -0.027166
     8  H   -0.022328   0.593593   0.000061   0.000789   0.002544   0.002266
     9  O    0.475512   0.000061   7.845674  -0.033356  -0.016934   0.299865
    10  O    0.463356   0.000789  -0.033356   7.836848  -0.027314  -0.001091
    11  H    0.388909   0.002544  -0.016934  -0.027314   0.745342   0.004118
    12  H   -0.027166   0.002266   0.299865  -0.001091   0.004118   0.405764
    13  C   -0.049769  -0.000053  -0.008084   0.259242   0.001583   0.000840
    14  H    0.006841   0.000014   0.000072  -0.039845  -0.000269   0.000024
    15  H   -0.014353  -0.000003  -0.000621  -0.043326   0.010184  -0.000067
    16  H   -0.005937   0.000021   0.006752  -0.043904  -0.002047   0.000341
             13         14         15         16
     1  H    0.000009   0.000000   0.000002   0.000000
     2  C   -0.000179  -0.000008   0.000069  -0.000004
     3  C    0.002227  -0.000081  -0.000232   0.000476
     4  H   -0.000009   0.000001   0.000014  -0.000002
     5  H    0.000003   0.000000  -0.000004  -0.000001
     6  H    0.000235  -0.000096  -0.000040   0.000058
     7  Si  -0.049769   0.006841  -0.014353  -0.005937
     8  H   -0.000053   0.000014  -0.000003   0.000021
     9  O   -0.008084   0.000072  -0.000621   0.006752
    10  O    0.259242  -0.039845  -0.043326  -0.043904
    11  H    0.001583  -0.000269   0.010184  -0.002047
    12  H    0.000840   0.000024  -0.000067   0.000341
    13  C    4.769946   0.402183   0.416312   0.413073
    14  H    0.402183   0.566889  -0.031096  -0.033359
    15  H    0.416312  -0.031096   0.593002  -0.047550
    16  H    0.413073  -0.033359  -0.047550   0.592388
 Mulliken atomic charges:
              1
     1  H    0.126582
     2  C   -0.378824
     3  C   -0.308801
     4  H    0.127107
     5  H    0.127923
     6  H    0.126938
     7  Si   0.540158
     8  H    0.103749
     9  O   -0.529130
    10  O   -0.342250
    11  H   -0.070684
    12  H    0.318654
    13  C   -0.207558
    14  H    0.128731
    15  H    0.117708
    16  H    0.119696
 Sum of Mulliken atomic charges =   0.00000
 Mulliken charges with hydrogens summed into heavy atoms:
              1
     2  C    0.002788
     3  C   -0.078113
     7  Si   0.469474
     9  O   -0.210476
    10  O   -0.342250
    13  C    0.158576
 Sum of Mulliken charges with hydrogens summed into heavy atoms =   0.00000
 Electronic spatial extent (au):  <R**2>=            936.2002
 Charge=              0.0000 electrons
 Dipole moment (field-independent basis, Debye):
    X=              0.1432    Y=             -0.0923    Z=             -1.0998  Tot=              1.1130
 Quadrupole moment (field-independent basis, Debye-Ang):
   XX=            -41.4533   YY=            -46.8946   ZZ=            -44.1324
   XY=              0.0750   XZ=              0.7944   YZ=             -4.1293
 Traceless Quadrupole moment (field-independent basis, Debye-Ang):
   XX=              2.7068   YY=             -2.7345   ZZ=              0.0277
   XY=              0.0750   XZ=              0.7944   YZ=             -4.1293
 Octapole moment (field-independent basis, Debye-Ang**2):
  XXX=             20.5399  YYY=              1.7589  ZZZ=             -7.7769  XYY=              1.4721
  XXY=             -1.2597  XXZ=             -0.8884  XZZ=              2.7817  YZZ=              5.9306
  YYZ=             -8.5565  XYZ=             -1.4308
 Hexadecapole moment (field-independent basis, Debye-Ang**3):
 XXXX=           -869.5255 YYYY=           -245.3477 ZZZZ=           -122.7459 XXXY=            -11.2098
 XXXZ=              2.6173 YYYX=             -3.4659 YYYZ=            -17.9337 ZZZX=              0.2116
 ZZZY=            -10.2600 XXYY=           -185.5662 XXZZ=           -170.2685 YYZZ=            -51.5800
 XXYZ=             -0.1035 YYXZ=             -3.8587 ZZXY=              0.2562
 N-N= 3.259243285354D+02 E-N=-1.975867346074D+03  KE= 5.582454851144D+02
 1\1\GINC-TARSUS2\SP\RPBE1PBE\def2TZVP\C3H10O2Si1\RENATO\29-Jun-2018\0\
 \#SP PBE1PBE/Def2TZVP geom=connectivity\\Structure: 74\\0,1\H,0,0.,0.,
 0.\C,0,1.093,0.,0.\C,0,1.655,1.421,0.\H,0,1.41,-0.56,-0.885\H,0,1.424,
 -0.557,0.88\H,0,1.308,1.969,-0.883\Si,0,3.513,1.515,0.035\H,0,1.282,1.
 975,0.868\O,0,4.128,1.492,1.565\O,0,3.904,2.899,-0.758\H,0,4.17,0.353,
 -0.617\H,0,3.794,2.14,2.186\C,0,5.228,3.302,-1.023\H,0,5.197,4.214,-1.
 623\H,0,5.775,2.536,-1.585\H,0,5.776,3.509,-0.099\\Version=EM64L-G09Re
 vC.01\State=1-A\HF=-560.0602381\RMSD=6.641e-09\Dipole=-0.1737368,0.375
 6111,0.1430584\Quadrupole=0.3252179,-1.194346,0.869128,2.2106803,-1.97
 31361,1.9861194\PG=C01 [X(C3H10O2Si1)]\\@


 Human beings, who are almost unique in having the
 ability to learn from the experience of others, are
 also remarkable for their apparent disinclination to do so.
                               -- Douglas Adams,
                                Last Chance to See
 Job cpu time:  0 days  0 hours  7 minutes  3.5 seconds.
 File lengths (MBytes):  RWF=     40 Int=      0 D2E=      0 Chk=      3 Scr=      1
 Normal termination of Gaussian 09 at Fri Jun 29 15:17:05 2018.
