 Entering Gaussian System, Link 0=g09
 Initial command:
 /usr/local/gaussian09/g09/l1.exe /scratch/renato/Gau-32074.inp -scrdir=/scratch/renato/
 Entering Link 1 = /usr/local/gaussian09/g09/l1.exe PID=     32076.
  
 Copyright (c) 1988,1990,1992,1993,1995,1998,2003,2009,2011,
            Gaussian, Inc.  All Rights Reserved.
  
 This is part of the Gaussian(R) 09 program.  It is based on
 the Gaussian(R) 03 system (copyright 2003, Gaussian, Inc.),
 the Gaussian(R) 98 system (copyright 1998, Gaussian, Inc.),
 the Gaussian(R) 94 system (copyright 1995, Gaussian, Inc.),
 the Gaussian 92(TM) system (copyright 1992, Gaussian, Inc.),
 the Gaussian 90(TM) system (copyright 1990, Gaussian, Inc.),
 the Gaussian 88(TM) system (copyright 1988, Gaussian, Inc.),
 the Gaussian 86(TM) system (copyright 1986, Carnegie Mellon
 University), and the Gaussian 82(TM) system (copyright 1983,
 Carnegie Mellon University). Gaussian is a federally registered
 trademark of Gaussian, Inc.
  
 This software contains proprietary and confidential information,
 including trade secrets, belonging to Gaussian, Inc.
  
 This software is provided under written license and may be
 used, copied, transmitted, or stored only in accord with that
 written license.
  
 The following legend is applicable only to US Government
 contracts under FAR:
  
                    RESTRICTED RIGHTS LEGEND
  
 Use, reproduction and disclosure by the US Government is
 subject to restrictions as set forth in subparagraphs (a)
 and (c) of the Commercial Computer Software - Restricted
 Rights clause in FAR 52.227-19.
  
 Gaussian, Inc.
 340 Quinnipiac St., Bldg. 40, Wallingford CT 06492
  
  
 ---------------------------------------------------------------
 Warning -- This program may not be used in any manner that
 competes with the business of Gaussian, Inc. or will provide
 assistance to any competitor of Gaussian, Inc.  The licensee
 of this program is prohibited from giving any competitor of
 Gaussian, Inc. access to this program.  By using this program,
 the user acknowledges that Gaussian, Inc. is engaged in the
 business of creating and licensing software in the field of
 computational chemistry and represents and warrants to the
 licensee that it is not a competitor of Gaussian, Inc. and that
 it will not use this program in any manner prohibited above.
 ---------------------------------------------------------------
  

 Cite this work as:
 Gaussian 09, Revision C.01,
 M. J. Frisch, G. W. Trucks, H. B. Schlegel, G. E. Scuseria, 
 M. A. Robb, J. R. Cheeseman, G. Scalmani, V. Barone, B. Mennucci, 
 G. A. Petersson, H. Nakatsuji, M. Caricato, X. Li, H. P. Hratchian, 
 A. F. Izmaylov, J. Bloino, G. Zheng, J. L. Sonnenberg, M. Hada, 
 M. Ehara, K. Toyota, R. Fukuda, J. Hasegawa, M. Ishida, T. Nakajima, 
 Y. Honda, O. Kitao, H. Nakai, T. Vreven, J. A. Montgomery, Jr., 
 J. E. Peralta, F. Ogliaro, M. Bearpark, J. J. Heyd, E. Brothers, 
 K. N. Kudin, V. N. Staroverov, T. Keith, R. Kobayashi, J. Normand, 
 K. Raghavachari, A. Rendell, J. C. Burant, S. S. Iyengar, J. Tomasi, 
 M. Cossi, N. Rega, J. M. Millam, M. Klene, J. E. Knox, J. B. Cross, 
 V. Bakken, C. Adamo, J. Jaramillo, R. Gomperts, R. E. Stratmann, 
 O. Yazyev, A. J. Austin, R. Cammi, C. Pomelli, J. W. Ochterski, 
 R. L. Martin, K. Morokuma, V. G. Zakrzewski, G. A. Voth, 
 P. Salvador, J. J. Dannenberg, S. Dapprich, A. D. Daniels, 
 O. Farkas, J. B. Foresman, J. V. Ortiz, J. Cioslowski, 
 and D. J. Fox, Gaussian, Inc., Wallingford CT, 2010.
 
 ******************************************
 Gaussian 09:  EM64L-G09RevC.01 23-Sep-2011
                29-Jun-2018 
 ******************************************
 %nproc=2
 Will use up to    2 processors via shared memory.
 %mem=256MB
 %RWF=d23.rwf
 %chk=d2373
 %NoSave
 --------------------------------------
 #SP PBE1PBE/Def2TZVP geom=connectivity
 --------------------------------------
 1/38=1,57=2/1;
 2/12=2,17=6,18=5,40=1/2;
 3/5=44,7=101,11=2,16=1,25=1,30=1,74=-13/1,2,3;
 4//1;
 5/5=2,38=5/2;
 6/7=2,8=2,9=2,10=2,28=1/1;
 99/5=1,9=1/99;
 -------------
 Structure: 73
 -------------
 Charge =  0 Multiplicity = 1
 Symbolic Z-Matrix:
 H                     0.        0.        0. 
 C                     1.093     0.        0. 
 C                     1.655     1.421     0. 
 H                     1.41     -0.56     -0.885 
 H                     1.424    -0.557     0.88 
 H                     1.308     1.969    -0.883 
 Si                    3.513     1.515     0.035 
 H                     1.282     1.975     0.868 
 O                     4.125     1.544     1.566 
 O                     3.907     2.87     -0.805 
 H                     4.17      0.331    -0.575 
 H                     3.791     2.215     2.164 
 C                     5.231     3.262    -1.082 
 H                     5.201     4.153    -1.713 
 H                     5.779     2.477    -1.615 
 H                     5.778     3.502    -0.164 
 
                          Input orientation:                          
 ---------------------------------------------------------------------
 Center     Atomic      Atomic             Coordinates (Angstroms)
 Number     Number       Type             X           Y           Z
 ---------------------------------------------------------------------
      1          1           0        0.000000    0.000000    0.000000
      2          6           0        1.093000    0.000000    0.000000
      3          6           0        1.655000    1.421000    0.000000
      4          1           0        1.410000   -0.560000   -0.885000
      5          1           0        1.424000   -0.557000    0.880000
      6          1           0        1.308000    1.969000   -0.883000
      7         14           0        3.513000    1.515000    0.035000
      8          1           0        1.282000    1.975000    0.868000
      9          8           0        4.125000    1.544000    1.566000
     10          8           0        3.907000    2.870000   -0.805000
     11          1           0        4.170000    0.331000   -0.575000
     12          1           0        3.791000    2.215000    2.164000
     13          6           0        5.231000    3.262000   -1.082000
     14          1           0        5.201000    4.153000   -1.713000
     15          1           0        5.779000    2.477000   -1.615000
     16          1           0        5.778000    3.502000   -0.164000
 ---------------------------------------------------------------------
                    Distance matrix (angstroms):
                    1          2          3          4          5
     1  H    0.000000
     2  C    1.093000   0.000000
     3  C    2.181345   1.528098   0.000000
     4  H    1.756395   1.094218   2.183486   0.000000
     5  H    1.764207   1.092799   2.177210   1.765058   0.000000
     6  H    2.523393   2.168611   1.095629   2.531057   3.082580
     7  Si   3.825914   2.855320   1.860706   3.094291   3.061230
     8  H    2.509497   2.165588   1.095203   3.084740   2.536007
     9  O    4.674603   3.745573   2.927180   4.219650   3.490014
    10  O    4.914222   4.099210   2.796271   4.243384   4.555090
    11  H    4.222450   3.147716   2.800705   2.916776   3.232040
    12  H    4.894977   4.107107   3.142583   4.760902   3.864625
    13  C    6.258972   5.379072   4.165067   5.408006   5.738245
    14  H    6.872567   6.087482   4.792944   6.104886   6.570653
    15  H    6.491579   5.540970   4.553102   5.370701   5.864828
    16  H    6.758416   5.851506   4.621319   6.008253   6.043404
                    6          7          8          9         10
     6  H    0.000000
     7  Si   2.431227   0.000000
     8  H    1.751203   2.425459   0.000000
     9  O    3.756822   1.649044   2.958989   0.000000
    10  O    2.751851   1.642212   3.238916   2.725333   0.000000
    11  H    3.311941   1.485128   3.622917   2.461153   2.562926
    12  H    3.938276   2.258301   2.834131   0.958854   3.042604
    13  C    4.135381   2.692809   4.588406   3.344647   1.408321
    14  H    4.540287   3.586627   5.173375   4.326257   2.035925
    15  H    4.558918   2.963562   5.161424   3.704722   2.077242
    16  H    4.779953   3.019602   4.859091   3.091775   2.076282
                   11         12         13         14         15
    11  H    0.000000
    12  H    3.345926   0.000000
    13  C    3.158090   3.702205   0.000000
    14  H    4.118943   4.557968   1.092219   0.000000
    15  H    2.876768   4.278040   1.095727   1.775574   0.000000
    16  H    3.579082   3.320259   1.095232   1.776550   1.776521
                   16
    16  H    0.000000
 Stoichiometry    C3H10O2Si
 Framework group  C1[X(C3H10O2Si)]
 Deg. of freedom    42
 Full point group                 C1      NOp   1
 Largest Abelian subgroup         C1      NOp   1
 Largest concise Abelian subgroup C1      NOp   1
                         Standard orientation:                         
 ---------------------------------------------------------------------
 Center     Atomic      Atomic             Coordinates (Angstroms)
 Number     Number       Type             X           Y           Z
 ---------------------------------------------------------------------
      1          1           0       -3.626765   -0.818158   -0.233551
      2          6           0       -2.757788   -0.409354    0.288376
      3          6           0       -1.490719   -0.518508   -0.558800
      4          1           0       -2.664136   -0.961241    1.228570
      5          1           0       -2.980100    0.631431    0.536477
      6          1           0       -1.285764   -1.565954   -0.806292
      7         14           0        0.034201    0.186788    0.240825
      8          1           0       -1.629190   -0.001514   -1.514317
      9          8           0        0.252273    1.786732   -0.093793
     10          8           0        1.286101   -0.726183   -0.303320
     11          1           0       -0.013265    0.149743    1.724732
     12          1           0        0.262648    2.049078   -1.016002
     13          6           0        2.616615   -0.568317    0.130476
     14          1           0        3.224642   -1.347540   -0.334344
     15          1           0        2.698463   -0.666517    1.218720
     16          1           0        3.019012    0.408332   -0.158950
 ---------------------------------------------------------------------
 Rotational constants (GHZ):      5.0843855      1.6464911      1.3693657
 Standard basis: def2TZVP (5D, 7F)
 There are   252 symmetry adapted basis functions of A   symmetry.
 Integral buffers will be    131072 words long.
 Raffenetti 2 integral format.
 Two-electron integral symmetry is turned on.
   252 basis functions,   404 primitive gaussians,   282 cartesian basis functions
    29 alpha electrons       29 beta electrons
       nuclear repulsion energy       325.9189265503 Hartrees.
 NAtoms=   16 NActive=   16 NUniq=   16 SFac= 1.00D+00 NAtFMM=   60 NAOKFM=F Big=F
 One-electron integrals computed using PRISM.
   1 Symmetry operations used in ECPInt.
 ECPInt:  NShTT=    5886 NPrTT=   17754 LenC2=    5729 LenP2D=   13746.
 LDataN:  DoStor=T MaxTD1= 6 Len=  172
 NBasis=   252 RedAO= T  NBF=   252
 NBsUse=   252 1.00D-06 NBFU=   252
 Harris functional with IExCor= 1009 diagonalized for initial guess.
 ExpMin= 7.01D-02 ExpMax= 4.48D+04 ExpMxC= 1.53D+03 IAcc=2 IRadAn=         4 AccDes= 0.00D+00
 HarFok:  IExCor= 1009 AccDes= 0.00D+00 IRadAn=         4 IDoV= 1
 ScaDFX=  1.000000  1.000000  1.000000  1.000000
 FoFCou: FMM=F IPFlag=           0 FMFlag=      100000 FMFlg1=           0
         NFxFlg=           0 DoJE=T BraDBF=F KetDBF=T FulRan=T
         Omega=  0.000000  0.000000  1.000000  0.000000  0.000000 ICntrl=     500 IOpCl=  0
         NMat0=    1 NMatS0=    1 NMatT0=    0 NMatD0=    1 NMtDS0=    0 NMtDT0=    0
         I1Cent=           4 NGrid=           0.
 Petite list used in FoFCou.
 Initial guess orbital symmetries:
       Occupied  (A) (A) (A) (A) (A) (A) (A) (A) (A) (A) (A) (A)
                 (A) (A) (A) (A) (A) (A) (A) (A) (A) (A) (A) (A)
                 (A) (A) (A) (A) (A)
       Virtual   (A) (A) (A) (A) (A) (A) (A) (A) (A) (A) (A) (A)
                 (A) (A) (A) (A) (A) (A) (A) (A) (A) (A) (A) (A)
                 (A) (A) (A) (A) (A) (A) (A) (A) (A) (A) (A) (A)
                 (A) (A) (A) (A) (A) (A) (A) (A) (A) (A) (A) (A)
                 (A) (A) (A) (A) (A) (A) (A) (A) (A) (A) (A) (A)
                 (A) (A) (A) (A) (A) (A) (A) (A) (A) (A) (A) (A)
                 (A) (A) (A) (A) (A) (A) (A) (A) (A) (A) (A) (A)
                 (A) (A) (A) (A) (A) (A) (A) (A) (A) (A) (A) (A)
                 (A) (A) (A) (A) (A) (A) (A) (A) (A) (A) (A) (A)
                 (A) (A) (A) (A) (A) (A) (A) (A) (A) (A) (A) (A)
                 (A) (A) (A) (A) (A) (A) (A) (A) (A) (A) (A) (A)
                 (A) (A) (A) (A) (A) (A) (A) (A) (A) (A) (A) (A)
                 (A) (A) (A) (A) (A) (A) (A) (A) (A) (A) (A) (A)
                 (A) (A) (A) (A) (A) (A) (A) (A) (A) (A) (A) (A)
                 (A) (A) (A) (A) (A) (A) (A) (A) (A) (A) (A) (A)
                 (A) (A) (A) (A) (A) (A) (A) (A) (A) (A) (A) (A)
                 (A) (A) (A) (A) (A) (A) (A) (A) (A) (A) (A) (A)
                 (A) (A) (A) (A) (A) (A) (A) (A) (A) (A) (A) (A)
                 (A) (A) (A) (A) (A) (A) (A)
 The electronic state of the initial guess is 1-A.
 Requested convergence on RMS density matrix=1.00D-08 within 128 cycles.
 Requested convergence on MAX density matrix=1.00D-06.
 Requested convergence on             energy=1.00D-06.
 No special actions if energy rises.
 Integral accuracy reduced to 1.0D-05 until final iterations.
 Initial convergence to 1.0D-05 achieved.  Increase integral accuracy.
 SCF Done:  E(RPBE1PBE) =  -560.060126724     A.U. after   12 cycles
             Convg  =    0.6924D-08             -V/T =  2.0033

 **********************************************************************

            Population analysis using the SCF density.

 **********************************************************************

 Orbital symmetries:
       Occupied  (A) (A) (A) (A) (A) (A) (A) (A) (A) (A) (A) (A)
                 (A) (A) (A) (A) (A) (A) (A) (A) (A) (A) (A) (A)
                 (A) (A) (A) (A) (A)
       Virtual   (A) (A) (A) (A) (A) (A) (A) (A) (A) (A) (A) (A)
                 (A) (A) (A) (A) (A) (A) (A) (A) (A) (A) (A) (A)
                 (A) (A) (A) (A) (A) (A) (A) (A) (A) (A) (A) (A)
                 (A) (A) (A) (A) (A) (A) (A) (A) (A) (A) (A) (A)
                 (A) (A) (A) (A) (A) (A) (A) (A) (A) (A) (A) (A)
                 (A) (A) (A) (A) (A) (A) (A) (A) (A) (A) (A) (A)
                 (A) (A) (A) (A) (A) (A) (A) (A) (A) (A) (A) (A)
                 (A) (A) (A) (A) (A) (A) (A) (A) (A) (A) (A) (A)
                 (A) (A) (A) (A) (A) (A) (A) (A) (A) (A) (A) (A)
                 (A) (A) (A) (A) (A) (A) (A) (A) (A) (A) (A) (A)
                 (A) (A) (A) (A) (A) (A) (A) (A) (A) (A) (A) (A)
                 (A) (A) (A) (A) (A) (A) (A) (A) (A) (A) (A) (A)
                 (A) (A) (A) (A) (A) (A) (A) (A) (A) (A) (A) (A)
                 (A) (A) (A) (A) (A) (A) (A) (A) (A) (A) (A) (A)
                 (A) (A) (A) (A) (A) (A) (A) (A) (A) (A) (A) (A)
                 (A) (A) (A) (A) (A) (A) (A) (A) (A) (A) (A) (A)
                 (A) (A) (A) (A) (A) (A) (A) (A) (A) (A) (A) (A)
                 (A) (A) (A) (A) (A) (A) (A) (A) (A) (A) (A) (A)
                 (A) (A) (A) (A) (A) (A) (A)
 The electronic state is 1-A.
 Alpha  occ. eigenvalues --  -66.25388 -19.20261 -19.19997 -10.26431 -10.21484
 Alpha  occ. eigenvalues --  -10.20786  -5.33054  -3.66581  -3.66461  -3.66328
 Alpha  occ. eigenvalues --   -1.04427  -1.02278  -0.78066  -0.70581  -0.63696
 Alpha  occ. eigenvalues --   -0.56882  -0.50947  -0.46865  -0.46287  -0.45797
 Alpha  occ. eigenvalues --   -0.44688  -0.39947  -0.38559  -0.37952  -0.36240
 Alpha  occ. eigenvalues --   -0.35505  -0.31854  -0.30468  -0.29657
 Alpha virt. eigenvalues --    0.03104   0.04552   0.05843   0.07031   0.09921
 Alpha virt. eigenvalues --    0.10012   0.11718   0.12045   0.12605   0.12866
 Alpha virt. eigenvalues --    0.13318   0.14653   0.16306   0.17169   0.18833
 Alpha virt. eigenvalues --    0.22072   0.22605   0.23560   0.24863   0.25605
 Alpha virt. eigenvalues --    0.25819   0.28202   0.29208   0.30045   0.32004
 Alpha virt. eigenvalues --    0.34408   0.37863   0.39127   0.39335   0.40651
 Alpha virt. eigenvalues --    0.42047   0.42457   0.43702   0.44395   0.44710
 Alpha virt. eigenvalues --    0.46303   0.46650   0.48033   0.49106   0.50991
 Alpha virt. eigenvalues --    0.51343   0.53731   0.54518   0.57058   0.58581
 Alpha virt. eigenvalues --    0.60995   0.63525   0.64534   0.67488   0.67678
 Alpha virt. eigenvalues --    0.71907   0.73623   0.77009   0.78161   0.79734
 Alpha virt. eigenvalues --    0.82861   0.85632   0.86957   0.88117   0.90340
 Alpha virt. eigenvalues --    0.93907   0.94537   0.99108   0.99880   1.02706
 Alpha virt. eigenvalues --    1.05085   1.05956   1.06312   1.08092   1.09117
 Alpha virt. eigenvalues --    1.11429   1.14085   1.15254   1.22309   1.24132
 Alpha virt. eigenvalues --    1.26201   1.27511   1.31484   1.38920   1.40223
 Alpha virt. eigenvalues --    1.42822   1.45539   1.48249   1.49360   1.50865
 Alpha virt. eigenvalues --    1.52939   1.55299   1.55382   1.57202   1.57593
 Alpha virt. eigenvalues --    1.59852   1.60633   1.63368   1.64235   1.64709
 Alpha virt. eigenvalues --    1.67747   1.71971   1.75335   1.78307   1.79650
 Alpha virt. eigenvalues --    1.80684   1.83083   1.86457   1.87770   1.90443
 Alpha virt. eigenvalues --    1.94474   1.95864   1.98799   2.00963   2.02894
 Alpha virt. eigenvalues --    2.04192   2.09042   2.10503   2.12340   2.15734
 Alpha virt. eigenvalues --    2.16816   2.20461   2.24132   2.26383   2.30829
 Alpha virt. eigenvalues --    2.32767   2.33119   2.33955   2.35332   2.35862
 Alpha virt. eigenvalues --    2.37326   2.40629   2.42274   2.46279   2.48700
 Alpha virt. eigenvalues --    2.51365   2.53255   2.54486   2.57032   2.58294
 Alpha virt. eigenvalues --    2.59812   2.60731   2.66574   2.68109   2.69393
 Alpha virt. eigenvalues --    2.71472   2.75347   2.78015   2.82840   2.86784
 Alpha virt. eigenvalues --    2.87787   2.92296   2.97553   2.99942   3.01483
 Alpha virt. eigenvalues --    3.04348   3.09391   3.09620   3.13293   3.15494
 Alpha virt. eigenvalues --    3.19791   3.22852   3.23720   3.28297   3.31110
 Alpha virt. eigenvalues --    3.32480   3.33442   3.35374   3.39121   3.43141
 Alpha virt. eigenvalues --    3.44436   3.46765   3.50794   3.53921   3.55127
 Alpha virt. eigenvalues --    3.58435   3.60228   3.63366   3.67413   3.76935
 Alpha virt. eigenvalues --    3.81458   3.86173   3.92343   3.95995   4.02711
 Alpha virt. eigenvalues --    4.19001   4.24321   4.25063   4.34927   4.36989
 Alpha virt. eigenvalues --    4.41689   4.46941   4.54733   4.55806   4.79075
 Alpha virt. eigenvalues --    5.15575   5.16910   5.17858   5.18114   5.28180
 Alpha virt. eigenvalues --    5.28925   5.38765   5.41848   5.45334   5.49962
 Alpha virt. eigenvalues --    5.80084   5.86628   6.02380   6.22423   6.38128
 Alpha virt. eigenvalues --    6.41913   6.53427   6.58137   6.60214   6.66149
 Alpha virt. eigenvalues --    6.67650   6.79249   6.82327   6.98186   7.05981
 Alpha virt. eigenvalues --    7.15787   7.22727  11.89226  22.36882  22.39948
 Alpha virt. eigenvalues --   22.45434  43.63508  43.91693
          Condensed to atoms (all electrons):
              1          2          3          4          5          6
     1  H    0.560236   0.412689  -0.035461  -0.027367  -0.028451  -0.007355
     2  C    0.412689   4.910002   0.313979   0.411656   0.408377  -0.030314
     3  C   -0.035461   0.313979   5.072670  -0.037452  -0.040076   0.370569
     4  H   -0.027367   0.411656  -0.037452   0.553581  -0.024293  -0.004598
     5  H   -0.028451   0.408377  -0.040076  -0.024293   0.554577   0.008126
     6  H   -0.007355  -0.030314   0.370569  -0.004598   0.008126   0.563258
     7  Si   0.006887  -0.020316   0.411578  -0.008262  -0.005230  -0.012749
     8  H   -0.007368  -0.031466   0.376372   0.007979  -0.003994  -0.022550
     9  O   -0.000214  -0.002801  -0.041635  -0.000104   0.002324   0.002216
    10  O   -0.000087   0.001375  -0.034767   0.000033   0.000094   0.004043
    11  H    0.000008   0.006602  -0.046479   0.001688   0.000574   0.001987
    12  H    0.000015  -0.000164  -0.003437   0.000012  -0.000022  -0.000002
    13  C    0.000009  -0.000179   0.002282  -0.000011   0.000003   0.000253
    14  H    0.000000  -0.000008  -0.000071   0.000001   0.000000  -0.000101
    15  H    0.000002   0.000073  -0.000262   0.000014  -0.000004  -0.000032
    16  H    0.000000  -0.000007   0.000466  -0.000002  -0.000001   0.000059
              7          8          9         10         11         12
     1  H    0.006887  -0.007368  -0.000214  -0.000087   0.000008   0.000015
     2  C   -0.020316  -0.031466  -0.002801   0.001375   0.006602  -0.000164
     3  C    0.411578   0.376372  -0.041635  -0.034767  -0.046479  -0.003437
     4  H   -0.008262   0.007979  -0.000104   0.000033   0.001688   0.000012
     5  H   -0.005230  -0.003994   0.002324   0.000094   0.000574  -0.000022
     6  H   -0.012749  -0.022550   0.002216   0.004043   0.001987  -0.000002
     7  Si  11.871482  -0.022373   0.476224   0.463404   0.389344  -0.027027
     8  H   -0.022373   0.594398   0.000204   0.000820   0.002509   0.002296
     9  O    0.476224   0.000204   7.845998  -0.033448  -0.017087   0.299579
    10  O    0.463404   0.000820  -0.033448   7.837279  -0.027391  -0.001109
    11  H    0.389344   0.002509  -0.017087  -0.027391   0.745400   0.004108
    12  H   -0.027027   0.002296   0.299579  -0.001109   0.004108   0.405750
    13  C   -0.050031  -0.000064  -0.008092   0.259185   0.001530   0.000833
    14  H    0.006839   0.000013   0.000071  -0.039943  -0.000269   0.000024
    15  H   -0.014255  -0.000005  -0.000636  -0.043373   0.010207  -0.000067
    16  H   -0.006028   0.000026   0.006742  -0.043991  -0.002046   0.000350
             13         14         15         16
     1  H    0.000009   0.000000   0.000002   0.000000
     2  C   -0.000179  -0.000008   0.000073  -0.000007
     3  C    0.002282  -0.000071  -0.000262   0.000466
     4  H   -0.000011   0.000001   0.000014  -0.000002
     5  H    0.000003   0.000000  -0.000004  -0.000001
     6  H    0.000253  -0.000101  -0.000032   0.000059
     7  Si  -0.050031   0.006839  -0.014255  -0.006028
     8  H   -0.000064   0.000013  -0.000005   0.000026
     9  O   -0.008092   0.000071  -0.000636   0.006742
    10  O    0.259185  -0.039943  -0.043373  -0.043991
    11  H    0.001530  -0.000269   0.010207  -0.002046
    12  H    0.000833   0.000024  -0.000067   0.000350
    13  C    4.769933   0.402226   0.416389   0.413005
    14  H    0.402226   0.567053  -0.031091  -0.033391
    15  H    0.416389  -0.031091   0.592891  -0.047589
    16  H    0.413005  -0.033391  -0.047589   0.592957
 Mulliken atomic charges:
              1
     1  H    0.126458
     2  C   -0.379497
     3  C   -0.308275
     4  H    0.127126
     5  H    0.127997
     6  H    0.127191
     7  Si   0.540511
     8  H    0.103204
     9  O   -0.529341
    10  O   -0.342123
    11  H   -0.070684
    12  H    0.318862
    13  C   -0.207269
    14  H    0.128648
    15  H    0.117739
    16  H    0.119452
 Sum of Mulliken atomic charges =   0.00000
 Mulliken charges with hydrogens summed into heavy atoms:
              1
     2  C    0.002084
     3  C   -0.077880
     7  Si   0.469828
     9  O   -0.210479
    10  O   -0.342123
    13  C    0.158570
 Sum of Mulliken charges with hydrogens summed into heavy atoms =   0.00000
 Electronic spatial extent (au):  <R**2>=            935.9861
 Charge=              0.0000 electrons
 Dipole moment (field-independent basis, Debye):
    X=              0.1454    Y=             -0.0874    Z=             -1.1020  Tot=              1.1150
 Quadrupole moment (field-independent basis, Debye-Ang):
   XX=            -41.4729   YY=            -46.8341   ZZ=            -44.1817
   XY=              0.0304   XZ=              0.7696   YZ=             -4.1529
 Traceless Quadrupole moment (field-independent basis, Debye-Ang):
   XX=              2.6900   YY=             -2.6712   ZZ=             -0.0188
   XY=              0.0304   XZ=              0.7696   YZ=             -4.1529
 Octapole moment (field-independent basis, Debye-Ang**2):
  XXX=             20.3819  YYY=              1.8962  ZZZ=             -7.6640  XYY=              1.5565
  XXY=             -1.2767  XXZ=             -0.9109  XZZ=              2.8548  YZZ=              5.8926
  YYZ=             -8.6689  XYZ=             -1.5414
 Hexadecapole moment (field-independent basis, Debye-Ang**3):
 XXXX=           -867.6621 YYYY=           -246.3750 ZZZZ=           -123.7799 XXXY=            -11.3997
 XXXZ=              2.6798 YYYX=             -3.3197 YYYZ=            -18.0993 ZZZX=              0.2354
 ZZZY=            -10.0484 XXYY=           -185.3088 XXZZ=           -170.0329 YYZZ=            -51.7459
 XXYZ=             -0.0305 YYXZ=             -4.0912 ZZXY=              0.2556
 N-N= 3.259189265503D+02 E-N=-1.975856917069D+03  KE= 5.582453269633D+02
 1\1\GINC-TARSUS2\SP\RPBE1PBE\def2TZVP\C3H10O2Si1\RENATO\29-Jun-2018\0\
 \#SP PBE1PBE/Def2TZVP geom=connectivity\\Structure: 73\\0,1\H,0,0.,0.,
 0.\C,0,1.093,0.,0.\C,0,1.655,1.421,0.\H,0,1.41,-0.56,-0.885\H,0,1.424,
 -0.557,0.88\H,0,1.308,1.969,-0.883\Si,0,3.513,1.515,0.035\H,0,1.282,1.
 975,0.868\O,0,4.125,1.544,1.566\O,0,3.907,2.87,-0.805\H,0,4.17,0.331,-
 0.575\H,0,3.791,2.215,2.164\C,0,5.231,3.262,-1.082\H,0,5.201,4.153,-1.
 713\H,0,5.779,2.477,-1.615\H,0,5.778,3.502,-0.164\\Version=EM64L-G09Re
 vC.01\State=1-A\HF=-560.0601267\RMSD=6.924e-09\Dipole=-0.1744121,0.381
 1192,0.1294626\Quadrupole=0.3281362,-1.0564566,0.7283204,2.1293505,-2.
 0487084,2.0554019\PG=C01 [X(C3H10O2Si1)]\\@


 WERE I TO AWAIT PERFECTION, MY BOOK WOULD NEVER BE FINISHED.
                                    -- HISTORY OF CHINESE WRITING

                                       TAI T'UNG, 13TH CENTURY
 Job cpu time:  0 days  0 hours  7 minutes 45.2 seconds.
 File lengths (MBytes):  RWF=     40 Int=      0 D2E=      0 Chk=      3 Scr=      1
 Normal termination of Gaussian 09 at Fri Jun 29 15:13:32 2018.
