 Entering Gaussian System, Link 0=g09
 Initial command:
 /usr/local/gaussian09/g09/l1.exe /scratch/renato/Gau-32625.inp -scrdir=/scratch/renato/
 Entering Link 1 = /usr/local/gaussian09/g09/l1.exe PID=     32627.
  
 Copyright (c) 1988,1990,1992,1993,1995,1998,2003,2009,2011,
            Gaussian, Inc.  All Rights Reserved.
  
 This is part of the Gaussian(R) 09 program.  It is based on
 the Gaussian(R) 03 system (copyright 2003, Gaussian, Inc.),
 the Gaussian(R) 98 system (copyright 1998, Gaussian, Inc.),
 the Gaussian(R) 94 system (copyright 1995, Gaussian, Inc.),
 the Gaussian 92(TM) system (copyright 1992, Gaussian, Inc.),
 the Gaussian 90(TM) system (copyright 1990, Gaussian, Inc.),
 the Gaussian 88(TM) system (copyright 1988, Gaussian, Inc.),
 the Gaussian 86(TM) system (copyright 1986, Carnegie Mellon
 University), and the Gaussian 82(TM) system (copyright 1983,
 Carnegie Mellon University). Gaussian is a federally registered
 trademark of Gaussian, Inc.
  
 This software contains proprietary and confidential information,
 including trade secrets, belonging to Gaussian, Inc.
  
 This software is provided under written license and may be
 used, copied, transmitted, or stored only in accord with that
 written license.
  
 The following legend is applicable only to US Government
 contracts under FAR:
  
                    RESTRICTED RIGHTS LEGEND
  
 Use, reproduction and disclosure by the US Government is
 subject to restrictions as set forth in subparagraphs (a)
 and (c) of the Commercial Computer Software - Restricted
 Rights clause in FAR 52.227-19.
  
 Gaussian, Inc.
 340 Quinnipiac St., Bldg. 40, Wallingford CT 06492
  
  
 ---------------------------------------------------------------
 Warning -- This program may not be used in any manner that
 competes with the business of Gaussian, Inc. or will provide
 assistance to any competitor of Gaussian, Inc.  The licensee
 of this program is prohibited from giving any competitor of
 Gaussian, Inc. access to this program.  By using this program,
 the user acknowledges that Gaussian, Inc. is engaged in the
 business of creating and licensing software in the field of
 computational chemistry and represents and warrants to the
 licensee that it is not a competitor of Gaussian, Inc. and that
 it will not use this program in any manner prohibited above.
 ---------------------------------------------------------------
  

 Cite this work as:
 Gaussian 09, Revision C.01,
 M. J. Frisch, G. W. Trucks, H. B. Schlegel, G. E. Scuseria, 
 M. A. Robb, J. R. Cheeseman, G. Scalmani, V. Barone, B. Mennucci, 
 G. A. Petersson, H. Nakatsuji, M. Caricato, X. Li, H. P. Hratchian, 
 A. F. Izmaylov, J. Bloino, G. Zheng, J. L. Sonnenberg, M. Hada, 
 M. Ehara, K. Toyota, R. Fukuda, J. Hasegawa, M. Ishida, T. Nakajima, 
 Y. Honda, O. Kitao, H. Nakai, T. Vreven, J. A. Montgomery, Jr., 
 J. E. Peralta, F. Ogliaro, M. Bearpark, J. J. Heyd, E. Brothers, 
 K. N. Kudin, V. N. Staroverov, T. Keith, R. Kobayashi, J. Normand, 
 K. Raghavachari, A. Rendell, J. C. Burant, S. S. Iyengar, J. Tomasi, 
 M. Cossi, N. Rega, J. M. Millam, M. Klene, J. E. Knox, J. B. Cross, 
 V. Bakken, C. Adamo, J. Jaramillo, R. Gomperts, R. E. Stratmann, 
 O. Yazyev, A. J. Austin, R. Cammi, C. Pomelli, J. W. Ochterski, 
 R. L. Martin, K. Morokuma, V. G. Zakrzewski, G. A. Voth, 
 P. Salvador, J. J. Dannenberg, S. Dapprich, A. D. Daniels, 
 O. Farkas, J. B. Foresman, J. V. Ortiz, J. Cioslowski, 
 and D. J. Fox, Gaussian, Inc., Wallingford CT, 2010.
 
 ******************************************
 Gaussian 09:  EM64L-G09RevC.01 23-Sep-2011
                29-Jun-2018 
 ******************************************
 %nproc=2
 Will use up to    2 processors via shared memory.
 %mem=256MB
 %RWF=d23.rwf
 %chk=d2382
 %NoSave
 --------------------------------------
 #SP PBE1PBE/Def2TZVP geom=connectivity
 --------------------------------------
 1/38=1,57=2/1;
 2/12=2,17=6,18=5,40=1/2;
 3/5=44,7=101,11=2,16=1,25=1,30=1,74=-13/1,2,3;
 4//1;
 5/5=2,38=5/2;
 6/7=2,8=2,9=2,10=2,28=1/1;
 99/5=1,9=1/99;
 -------------
 Structure: 82
 -------------
 Charge =  0 Multiplicity = 1
 Symbolic Z-Matrix:
 H                     0.        0.        0. 
 C                     1.093     0.        0. 
 C                     1.655     1.421     0. 
 H                     1.41     -0.56     -0.885 
 H                     1.424    -0.557     0.88 
 H                     1.308     1.969    -0.883 
 Si                    3.513     1.515     0.035 
 H                     1.282     1.975     0.868 
 O                     4.15      1.076     1.491 
 O                     3.888     3.067    -0.352 
 H                     4.164     0.582    -0.92 
 H                     3.824     1.526     2.271 
 C                     5.206     3.536    -0.513 
 H                     5.163     4.578    -0.838 
 H                     5.748     2.959    -1.271 
 H                     5.767     3.485     0.426 
 
                          Input orientation:                          
 ---------------------------------------------------------------------
 Center     Atomic      Atomic             Coordinates (Angstroms)
 Number     Number       Type             X           Y           Z
 ---------------------------------------------------------------------
      1          1           0        0.000000    0.000000    0.000000
      2          6           0        1.093000    0.000000    0.000000
      3          6           0        1.655000    1.421000    0.000000
      4          1           0        1.410000   -0.560000   -0.885000
      5          1           0        1.424000   -0.557000    0.880000
      6          1           0        1.308000    1.969000   -0.883000
      7         14           0        3.513000    1.515000    0.035000
      8          1           0        1.282000    1.975000    0.868000
      9          8           0        4.150000    1.076000    1.491000
     10          8           0        3.888000    3.067000   -0.352000
     11          1           0        4.164000    0.582000   -0.920000
     12          1           0        3.824000    1.526000    2.271000
     13          6           0        5.206000    3.536000   -0.513000
     14          1           0        5.163000    4.578000   -0.838000
     15          1           0        5.748000    2.959000   -1.271000
     16          1           0        5.767000    3.485000    0.426000
 ---------------------------------------------------------------------
                    Distance matrix (angstroms):
                    1          2          3          4          5
     1  H    0.000000
     2  C    1.093000   0.000000
     3  C    2.181345   1.528098   0.000000
     4  H    1.756395   1.094218   2.183486   0.000000
     5  H    1.764207   1.092799   2.177210   1.765058   0.000000
     6  H    2.523393   2.168611   1.095629   2.531057   3.082580
     7  Si   3.825914   2.855320   1.860706   3.094291   3.061230
     8  H    2.509497   2.165588   1.095203   3.084740   2.536007
     9  O    4.539092   3.567367   2.926966   3.978627   3.235906
    10  O    4.964568   4.164423   2.796338   4.424896   4.552197
    11  H    4.303954   3.258246   2.800964   2.981594   3.470579
    12  H    4.702031   3.865809   3.142137   4.487664   3.468972
    13  C    6.314183   5.448232   4.164852   5.596893   5.744269
    14  H    6.951036   6.182655   4.793220   6.362882   6.580264
    15  H    6.588674   5.660402   4.553409   5.599161   5.973779
    16  H    6.751666   5.845766   4.620619   6.088037   5.950255
                    6          7          8          9         10
     6  H    0.000000
     7  Si   2.431227   0.000000
     8  H    1.751203   2.425459   0.000000
     9  O    3.809237   1.648765   3.069488   0.000000
    10  O    2.853763   1.642893   3.077678   2.725688   0.000000
    11  H    3.175197   1.485367   3.666513   2.461128   2.563986
    12  H    4.058845   2.257551   2.937988   0.957693   3.042845
    13  C    4.217439   2.692767   4.443159   3.344062   1.408192
    14  H    4.655097   3.587004   4.974757   4.326016   2.035913
    15  H    4.565550   2.964118   5.048637   3.705123   2.077456
    16  H    4.888192   3.018989   4.752966   3.090663   2.076210
                   11         12         13         14         15
    11  H    0.000000
    12  H    3.345029   0.000000
    13  C    3.158723   3.701443   0.000000
    14  H    4.119799   4.557796   1.092354   0.000000
    15  H    2.877913   4.277970   1.096019   1.775070   0.000000
    16  H    3.578929   3.319180   1.095008   1.776840   1.776752
                   16
    16  H    0.000000
 Stoichiometry    C3H10O2Si
 Framework group  C1[X(C3H10O2Si)]
 Deg. of freedom    42
 Full point group                 C1      NOp   1
 Largest Abelian subgroup         C1      NOp   1
 Largest concise Abelian subgroup C1      NOp   1
                         Standard orientation:                         
 ---------------------------------------------------------------------
 Center     Atomic      Atomic             Coordinates (Angstroms)
 Number     Number       Type             X           Y           Z
 ---------------------------------------------------------------------
      1          1           0       -3.628878   -0.795330   -0.253868
      2          6           0       -2.779757   -0.283911    0.206669
      3          6           0       -1.456978   -0.702147   -0.433970
      4          1           0       -2.805785   -0.524219    1.273857
      5          1           0       -2.946476    0.791353    0.105565
      6          1           0       -1.308041   -1.782811   -0.332057
      7         14           0        0.042027    0.148142    0.267611
      8          1           0       -1.476719   -0.497788   -1.509756
      9          8           0        0.136545    1.737680   -0.160010
     10          8           0        1.334870   -0.707727   -0.275660
     11          1           0        0.048945    0.190949    1.752345
     12          1           0        0.096110    1.948550   -1.093324
     13          6           0        2.665265   -0.435397    0.097022
     14          1           0        3.309934   -1.196333   -0.348640
     15          1           0        2.792390   -0.467983    1.185156
     16          1           0        2.987653    0.548725   -0.258805
 ---------------------------------------------------------------------
 Rotational constants (GHZ):      5.4109469      1.6274961      1.3625733
 Standard basis: def2TZVP (5D, 7F)
 There are   252 symmetry adapted basis functions of A   symmetry.
 Integral buffers will be    131072 words long.
 Raffenetti 2 integral format.
 Two-electron integral symmetry is turned on.
   252 basis functions,   404 primitive gaussians,   282 cartesian basis functions
    29 alpha electrons       29 beta electrons
       nuclear repulsion energy       326.1674326808 Hartrees.
 NAtoms=   16 NActive=   16 NUniq=   16 SFac= 1.00D+00 NAtFMM=   60 NAOKFM=F Big=F
 One-electron integrals computed using PRISM.
   1 Symmetry operations used in ECPInt.
 ECPInt:  NShTT=    5886 NPrTT=   17754 LenC2=    5728 LenP2D=   13762.
 LDataN:  DoStor=T MaxTD1= 6 Len=  172
 NBasis=   252 RedAO= T  NBF=   252
 NBsUse=   252 1.00D-06 NBFU=   252
 Harris functional with IExCor= 1009 diagonalized for initial guess.
 ExpMin= 7.01D-02 ExpMax= 4.48D+04 ExpMxC= 1.53D+03 IAcc=2 IRadAn=         4 AccDes= 0.00D+00
 HarFok:  IExCor= 1009 AccDes= 0.00D+00 IRadAn=         4 IDoV= 1
 ScaDFX=  1.000000  1.000000  1.000000  1.000000
 FoFCou: FMM=F IPFlag=           0 FMFlag=      100000 FMFlg1=           0
         NFxFlg=           0 DoJE=T BraDBF=F KetDBF=T FulRan=T
         Omega=  0.000000  0.000000  1.000000  0.000000  0.000000 ICntrl=     500 IOpCl=  0
         NMat0=    1 NMatS0=    1 NMatT0=    0 NMatD0=    1 NMtDS0=    0 NMtDT0=    0
         I1Cent=           4 NGrid=           0.
 Petite list used in FoFCou.
 Initial guess orbital symmetries:
       Occupied  (A) (A) (A) (A) (A) (A) (A) (A) (A) (A) (A) (A)
                 (A) (A) (A) (A) (A) (A) (A) (A) (A) (A) (A) (A)
                 (A) (A) (A) (A) (A)
       Virtual   (A) (A) (A) (A) (A) (A) (A) (A) (A) (A) (A) (A)
                 (A) (A) (A) (A) (A) (A) (A) (A) (A) (A) (A) (A)
                 (A) (A) (A) (A) (A) (A) (A) (A) (A) (A) (A) (A)
                 (A) (A) (A) (A) (A) (A) (A) (A) (A) (A) (A) (A)
                 (A) (A) (A) (A) (A) (A) (A) (A) (A) (A) (A) (A)
                 (A) (A) (A) (A) (A) (A) (A) (A) (A) (A) (A) (A)
                 (A) (A) (A) (A) (A) (A) (A) (A) (A) (A) (A) (A)
                 (A) (A) (A) (A) (A) (A) (A) (A) (A) (A) (A) (A)
                 (A) (A) (A) (A) (A) (A) (A) (A) (A) (A) (A) (A)
                 (A) (A) (A) (A) (A) (A) (A) (A) (A) (A) (A) (A)
                 (A) (A) (A) (A) (A) (A) (A) (A) (A) (A) (A) (A)
                 (A) (A) (A) (A) (A) (A) (A) (A) (A) (A) (A) (A)
                 (A) (A) (A) (A) (A) (A) (A) (A) (A) (A) (A) (A)
                 (A) (A) (A) (A) (A) (A) (A) (A) (A) (A) (A) (A)
                 (A) (A) (A) (A) (A) (A) (A) (A) (A) (A) (A) (A)
                 (A) (A) (A) (A) (A) (A) (A) (A) (A) (A) (A) (A)
                 (A) (A) (A) (A) (A) (A) (A) (A) (A) (A) (A) (A)
                 (A) (A) (A) (A) (A) (A) (A) (A) (A) (A) (A) (A)
                 (A) (A) (A) (A) (A) (A) (A)
 The electronic state of the initial guess is 1-A.
 Requested convergence on RMS density matrix=1.00D-08 within 128 cycles.
 Requested convergence on MAX density matrix=1.00D-06.
 Requested convergence on             energy=1.00D-06.
 No special actions if energy rises.
 Integral accuracy reduced to 1.0D-05 until final iterations.
 Initial convergence to 1.0D-05 achieved.  Increase integral accuracy.
 SCF Done:  E(RPBE1PBE) =  -560.061024901     A.U. after   12 cycles
             Convg  =    0.6064D-08             -V/T =  2.0033

 **********************************************************************

            Population analysis using the SCF density.

 **********************************************************************

 Orbital symmetries:
       Occupied  (A) (A) (A) (A) (A) (A) (A) (A) (A) (A) (A) (A)
                 (A) (A) (A) (A) (A) (A) (A) (A) (A) (A) (A) (A)
                 (A) (A) (A) (A) (A)
       Virtual   (A) (A) (A) (A) (A) (A) (A) (A) (A) (A) (A) (A)
                 (A) (A) (A) (A) (A) (A) (A) (A) (A) (A) (A) (A)
                 (A) (A) (A) (A) (A) (A) (A) (A) (A) (A) (A) (A)
                 (A) (A) (A) (A) (A) (A) (A) (A) (A) (A) (A) (A)
                 (A) (A) (A) (A) (A) (A) (A) (A) (A) (A) (A) (A)
                 (A) (A) (A) (A) (A) (A) (A) (A) (A) (A) (A) (A)
                 (A) (A) (A) (A) (A) (A) (A) (A) (A) (A) (A) (A)
                 (A) (A) (A) (A) (A) (A) (A) (A) (A) (A) (A) (A)
                 (A) (A) (A) (A) (A) (A) (A) (A) (A) (A) (A) (A)
                 (A) (A) (A) (A) (A) (A) (A) (A) (A) (A) (A) (A)
                 (A) (A) (A) (A) (A) (A) (A) (A) (A) (A) (A) (A)
                 (A) (A) (A) (A) (A) (A) (A) (A) (A) (A) (A) (A)
                 (A) (A) (A) (A) (A) (A) (A) (A) (A) (A) (A) (A)
                 (A) (A) (A) (A) (A) (A) (A) (A) (A) (A) (A) (A)
                 (A) (A) (A) (A) (A) (A) (A) (A) (A) (A) (A) (A)
                 (A) (A) (A) (A) (A) (A) (A) (A) (A) (A) (A) (A)
                 (A) (A) (A) (A) (A) (A) (A) (A) (A) (A) (A) (A)
                 (A) (A) (A) (A) (A) (A) (A) (A) (A) (A) (A) (A)
                 (A) (A) (A) (A) (A) (A) (A)
 The electronic state is 1-A.
 Alpha  occ. eigenvalues --  -66.25396 -19.20287 -19.19981 -10.26432 -10.21466
 Alpha  occ. eigenvalues --  -10.20839  -5.33057  -3.66586  -3.66465  -3.66332
 Alpha  occ. eigenvalues --   -1.04424  -1.02316  -0.78075  -0.70571  -0.63701
 Alpha  occ. eigenvalues --   -0.56915  -0.50900  -0.46923  -0.46278  -0.45783
 Alpha  occ. eigenvalues --   -0.44740  -0.39718  -0.38573  -0.38244  -0.36090
 Alpha  occ. eigenvalues --   -0.35656  -0.31897  -0.30447  -0.29630
 Alpha virt. eigenvalues --    0.03004   0.04633   0.06072   0.07113   0.09749
 Alpha virt. eigenvalues --    0.10254   0.11480   0.12408   0.12529   0.12981
 Alpha virt. eigenvalues --    0.13559   0.14696   0.16023   0.16979   0.18643
 Alpha virt. eigenvalues --    0.21724   0.22548   0.23152   0.24439   0.25289
 Alpha virt. eigenvalues --    0.25888   0.28451   0.29722   0.29985   0.31703
 Alpha virt. eigenvalues --    0.34510   0.37090   0.38825   0.39646   0.41175
 Alpha virt. eigenvalues --    0.41983   0.42879   0.43513   0.44632   0.45350
 Alpha virt. eigenvalues --    0.46519   0.46612   0.48153   0.49110   0.50689
 Alpha virt. eigenvalues --    0.51696   0.53737   0.54793   0.57937   0.58482
 Alpha virt. eigenvalues --    0.61413   0.62206   0.64592   0.66819   0.67582
 Alpha virt. eigenvalues --    0.73323   0.74143   0.74782   0.77974   0.79561
 Alpha virt. eigenvalues --    0.83548   0.85825   0.86613   0.87619   0.90453
 Alpha virt. eigenvalues --    0.94288   0.95400   0.98489   1.00355   1.03437
 Alpha virt. eigenvalues --    1.04828   1.06229   1.06495   1.08173   1.08726
 Alpha virt. eigenvalues --    1.12162   1.14023   1.15203   1.21683   1.22369
 Alpha virt. eigenvalues --    1.26592   1.27917   1.32109   1.37319   1.39979
 Alpha virt. eigenvalues --    1.42727   1.46205   1.48375   1.49740   1.51910
 Alpha virt. eigenvalues --    1.52833   1.55156   1.55462   1.56836   1.58299
 Alpha virt. eigenvalues --    1.60456   1.61052   1.62858   1.63584   1.63997
 Alpha virt. eigenvalues --    1.68056   1.72115   1.76640   1.78206   1.79372
 Alpha virt. eigenvalues --    1.80853   1.83571   1.86415   1.86927   1.91064
 Alpha virt. eigenvalues --    1.93975   1.98492   1.99072   2.00989   2.02804
 Alpha virt. eigenvalues --    2.04103   2.08477   2.11123   2.13060   2.15460
 Alpha virt. eigenvalues --    2.16643   2.20206   2.25160   2.27548   2.30889
 Alpha virt. eigenvalues --    2.32532   2.33148   2.34472   2.35027   2.36185
 Alpha virt. eigenvalues --    2.36692   2.41076   2.42663   2.46821   2.48146
 Alpha virt. eigenvalues --    2.50181   2.52886   2.54574   2.57517   2.57883
 Alpha virt. eigenvalues --    2.59689   2.61911   2.66745   2.67659   2.69529
 Alpha virt. eigenvalues --    2.72155   2.77321   2.79884   2.82387   2.84437
 Alpha virt. eigenvalues --    2.87565   2.92882   2.97644   2.99766   3.02045
 Alpha virt. eigenvalues --    3.04124   3.09513   3.09780   3.13837   3.15253
 Alpha virt. eigenvalues --    3.19365   3.22324   3.23842   3.26986   3.30468
 Alpha virt. eigenvalues --    3.32286   3.32911   3.37135   3.39017   3.42087
 Alpha virt. eigenvalues --    3.44328   3.46307   3.49904   3.53938   3.55048
 Alpha virt. eigenvalues --    3.58622   3.60209   3.63372   3.68542   3.76798
 Alpha virt. eigenvalues --    3.81059   3.86593   3.91929   3.96750   4.03802
 Alpha virt. eigenvalues --    4.18975   4.23964   4.25709   4.34415   4.36954
 Alpha virt. eigenvalues --    4.41832   4.46794   4.54855   4.56615   4.79706
 Alpha virt. eigenvalues --    5.15566   5.16922   5.17978   5.18226   5.28246
 Alpha virt. eigenvalues --    5.29153   5.38598   5.41976   5.45416   5.50195
 Alpha virt. eigenvalues --    5.80102   5.86638   6.02984   6.22858   6.37739
 Alpha virt. eigenvalues --    6.41862   6.53443   6.58318   6.60247   6.66314
 Alpha virt. eigenvalues --    6.67720   6.79806   6.82226   6.97382   7.06208
 Alpha virt. eigenvalues --    7.15999   7.22754  11.90557  22.37756  22.39813
 Alpha virt. eigenvalues --   22.45760  43.64377  43.92832
          Condensed to atoms (all electrons):
              1          2          3          4          5          6
     1  H    0.558011   0.412688  -0.036194  -0.027394  -0.027779  -0.007116
     2  C    0.412688   4.923341   0.309220   0.411700   0.406746  -0.031077
     3  C   -0.036194   0.309220   5.061703  -0.037777  -0.038958   0.372324
     4  H   -0.027394   0.411700  -0.037777   0.552374  -0.024120  -0.004352
     5  H   -0.027779   0.406746  -0.038958  -0.024120   0.554605   0.008196
     6  H   -0.007116  -0.031077   0.372324  -0.004352   0.008196   0.566415
     7  Si   0.007822  -0.029342   0.422626  -0.007452  -0.006077  -0.013507
     8  H   -0.007055  -0.032626   0.379485   0.007980  -0.003961  -0.021815
     9  O   -0.000159  -0.005517  -0.038310  -0.000169   0.005048   0.002297
    10  O   -0.000066   0.001548  -0.032434  -0.000006   0.000168   0.002996
    11  H   -0.000140   0.005468  -0.043892   0.002444   0.000278   0.001180
    12  H    0.000003   0.000101  -0.003078   0.000032  -0.000008  -0.000002
    13  C    0.000007  -0.000177   0.001919   0.000002   0.000002   0.000101
    14  H    0.000000  -0.000011  -0.000169   0.000000   0.000000  -0.000048
    15  H    0.000001   0.000039  -0.000093   0.000011  -0.000004  -0.000079
    16  H    0.000000   0.000018   0.000596  -0.000003  -0.000003   0.000039
              7          8          9         10         11         12
     1  H    0.007822  -0.007055  -0.000159  -0.000066  -0.000140   0.000003
     2  C   -0.029342  -0.032626  -0.005517   0.001548   0.005468   0.000101
     3  C    0.422626   0.379485  -0.038310  -0.032434  -0.043892  -0.003078
     4  H   -0.007452   0.007980  -0.000169  -0.000006   0.002444   0.000032
     5  H   -0.006077  -0.003961   0.005048   0.000168   0.000278  -0.000008
     6  H   -0.013507  -0.021815   0.002297   0.002996   0.001180  -0.000002
     7  Si  11.878859  -0.022203   0.470001   0.463164   0.386370  -0.027886
     8  H   -0.022203   0.585518  -0.000955   0.000795   0.002877   0.001785
     9  O    0.470001  -0.000955   7.846917  -0.032844  -0.015955   0.299422
    10  O    0.463164   0.000795  -0.032844   7.834506  -0.026902  -0.001041
    11  H    0.386370   0.002877  -0.015955  -0.026902   0.743787   0.004221
    12  H   -0.027886   0.001785   0.299422  -0.001041   0.004221   0.406332
    13  C   -0.047919   0.000047  -0.007539   0.258976   0.002021   0.000867
    14  H    0.006962   0.000022   0.000080  -0.040280  -0.000277   0.000023
    15  H   -0.015472   0.000028  -0.000530  -0.043105   0.010161  -0.000058
    16  H   -0.005416  -0.000025   0.006694  -0.043953  -0.002046   0.000311
             13         14         15         16
     1  H    0.000007   0.000000   0.000001   0.000000
     2  C   -0.000177  -0.000011   0.000039   0.000018
     3  C    0.001919  -0.000169  -0.000093   0.000596
     4  H    0.000002   0.000000   0.000011  -0.000003
     5  H    0.000002   0.000000  -0.000004  -0.000003
     6  H    0.000101  -0.000048  -0.000079   0.000039
     7  Si  -0.047919   0.006962  -0.015472  -0.005416
     8  H    0.000047   0.000022   0.000028  -0.000025
     9  O   -0.007539   0.000080  -0.000530   0.006694
    10  O    0.258976  -0.040280  -0.043105  -0.043953
    11  H    0.002021  -0.000277   0.010161  -0.002046
    12  H    0.000867   0.000023  -0.000058   0.000311
    13  C    4.769782   0.402571   0.416669   0.412386
    14  H    0.402571   0.566950  -0.030996  -0.033567
    15  H    0.416669  -0.030996   0.593560  -0.047664
    16  H    0.412386  -0.033567  -0.047664   0.593461
 Mulliken atomic charges:
              1
     1  H    0.127371
     2  C   -0.372120
     3  C   -0.316969
     4  H    0.126729
     5  H    0.125866
     6  H    0.124444
     7  Si   0.539472
     8  H    0.110104
     9  O   -0.528483
    10  O   -0.341522
    11  H   -0.069593
    12  H    0.318977
    13  C   -0.209717
    14  H    0.128738
    15  H    0.117532
    16  H    0.119173
 Sum of Mulliken atomic charges =   0.00000
 Mulliken charges with hydrogens summed into heavy atoms:
              1
     2  C    0.007845
     3  C   -0.082421
     7  Si   0.469879
     9  O   -0.209507
    10  O   -0.341522
    13  C    0.155726
 Sum of Mulliken charges with hydrogens summed into heavy atoms =   0.00000
 Electronic spatial extent (au):  <R**2>=            935.7944
 Charge=              0.0000 electrons
 Dipole moment (field-independent basis, Debye):
    X=              0.1079    Y=             -0.1242    Z=             -1.1009  Tot=              1.1132
 Quadrupole moment (field-independent basis, Debye-Ang):
   XX=            -41.4670   YY=            -47.3075   ZZ=            -43.7684
   XY=              0.4219   XZ=              0.8973   YZ=             -3.9373
 Traceless Quadrupole moment (field-independent basis, Debye-Ang):
   XX=              2.7140   YY=             -3.1265   ZZ=              0.4126
   XY=              0.4219   XZ=              0.8973   YZ=             -3.9373
 Octapole moment (field-independent basis, Debye-Ang**2):
  XXX=             20.9769  YYY=              0.9111  ZZZ=             -8.5240  XYY=              0.9504
  XXY=             -1.0320  XXZ=             -0.7383  XZZ=              2.1224  YZZ=              6.0601
  YYZ=             -7.7611  XYZ=             -0.6260
 Hexadecapole moment (field-independent basis, Debye-Ang**3):
 XXXX=           -881.9219 YYYY=           -240.2358 ZZZZ=           -114.3244 XXXY=             -9.3587
 XXXZ=              1.4223 YYYX=             -4.1236 YYYZ=            -17.4750 ZZZX=             -0.1872
 ZZZY=            -10.4374 XXYY=           -187.7579 XXZZ=           -170.7631 YYZZ=            -50.3901
 XXYZ=             -0.4239 YYXZ=             -2.0759 ZZXY=             -0.2102
 N-N= 3.261674326808D+02 E-N=-1.976346341942D+03  KE= 5.582407598455D+02
 1\1\GINC-TARSUS2\SP\RPBE1PBE\def2TZVP\C3H10O2Si1\RENATO\29-Jun-2018\0\
 \#SP PBE1PBE/Def2TZVP geom=connectivity\\Structure: 82\\0,1\H,0,0.,0.,
 0.\C,0,1.093,0.,0.\C,0,1.655,1.421,0.\H,0,1.41,-0.56,-0.885\H,0,1.424,
 -0.557,0.88\H,0,1.308,1.969,-0.883\Si,0,3.513,1.515,0.035\H,0,1.282,1.
 975,0.868\O,0,4.15,1.076,1.491\O,0,3.888,3.067,-0.352\H,0,4.164,0.582,
 -0.92\H,0,3.824,1.526,2.271\C,0,5.206,3.536,-0.513\H,0,5.163,4.578,-0.
 838\H,0,5.748,2.959,-1.271\H,0,5.767,3.485,0.426\\Version=EM64L-G09Rev
 C.01\State=1-A\HF=-560.0610249\RMSD=6.064e-09\Dipole=-0.1723964,0.3173
 547,0.2477204\Quadrupole=0.2738534,-2.0668119,1.7929586,2.6861835,-1.2
 361576,1.1715419\PG=C01 [X(C3H10O2Si1)]\\@


 AN AIRPLANE IS A COLLECTION OF SPARE PARTS
 FLYING IN CLOSE FORMATION.
 Job cpu time:  0 days  0 hours  8 minutes 52.7 seconds.
 File lengths (MBytes):  RWF=     40 Int=      0 D2E=      0 Chk=      3 Scr=      1
 Normal termination of Gaussian 09 at Fri Jun 29 15:53:53 2018.
