 Entering Gaussian System, Link 0=g09
 Initial command:
 /usr/local/gaussian09/g09/l1.exe /scratch/renato/Gau-32567.inp -scrdir=/scratch/renato/
 Entering Link 1 = /usr/local/gaussian09/g09/l1.exe PID=     32569.
  
 Copyright (c) 1988,1990,1992,1993,1995,1998,2003,2009,2011,
            Gaussian, Inc.  All Rights Reserved.
  
 This is part of the Gaussian(R) 09 program.  It is based on
 the Gaussian(R) 03 system (copyright 2003, Gaussian, Inc.),
 the Gaussian(R) 98 system (copyright 1998, Gaussian, Inc.),
 the Gaussian(R) 94 system (copyright 1995, Gaussian, Inc.),
 the Gaussian 92(TM) system (copyright 1992, Gaussian, Inc.),
 the Gaussian 90(TM) system (copyright 1990, Gaussian, Inc.),
 the Gaussian 88(TM) system (copyright 1988, Gaussian, Inc.),
 the Gaussian 86(TM) system (copyright 1986, Carnegie Mellon
 University), and the Gaussian 82(TM) system (copyright 1983,
 Carnegie Mellon University). Gaussian is a federally registered
 trademark of Gaussian, Inc.
  
 This software contains proprietary and confidential information,
 including trade secrets, belonging to Gaussian, Inc.
  
 This software is provided under written license and may be
 used, copied, transmitted, or stored only in accord with that
 written license.
  
 The following legend is applicable only to US Government
 contracts under FAR:
  
                    RESTRICTED RIGHTS LEGEND
  
 Use, reproduction and disclosure by the US Government is
 subject to restrictions as set forth in subparagraphs (a)
 and (c) of the Commercial Computer Software - Restricted
 Rights clause in FAR 52.227-19.
  
 Gaussian, Inc.
 340 Quinnipiac St., Bldg. 40, Wallingford CT 06492
  
  
 ---------------------------------------------------------------
 Warning -- This program may not be used in any manner that
 competes with the business of Gaussian, Inc. or will provide
 assistance to any competitor of Gaussian, Inc.  The licensee
 of this program is prohibited from giving any competitor of
 Gaussian, Inc. access to this program.  By using this program,
 the user acknowledges that Gaussian, Inc. is engaged in the
 business of creating and licensing software in the field of
 computational chemistry and represents and warrants to the
 licensee that it is not a competitor of Gaussian, Inc. and that
 it will not use this program in any manner prohibited above.
 ---------------------------------------------------------------
  

 Cite this work as:
 Gaussian 09, Revision C.01,
 M. J. Frisch, G. W. Trucks, H. B. Schlegel, G. E. Scuseria, 
 M. A. Robb, J. R. Cheeseman, G. Scalmani, V. Barone, B. Mennucci, 
 G. A. Petersson, H. Nakatsuji, M. Caricato, X. Li, H. P. Hratchian, 
 A. F. Izmaylov, J. Bloino, G. Zheng, J. L. Sonnenberg, M. Hada, 
 M. Ehara, K. Toyota, R. Fukuda, J. Hasegawa, M. Ishida, T. Nakajima, 
 Y. Honda, O. Kitao, H. Nakai, T. Vreven, J. A. Montgomery, Jr., 
 J. E. Peralta, F. Ogliaro, M. Bearpark, J. J. Heyd, E. Brothers, 
 K. N. Kudin, V. N. Staroverov, T. Keith, R. Kobayashi, J. Normand, 
 K. Raghavachari, A. Rendell, J. C. Burant, S. S. Iyengar, J. Tomasi, 
 M. Cossi, N. Rega, J. M. Millam, M. Klene, J. E. Knox, J. B. Cross, 
 V. Bakken, C. Adamo, J. Jaramillo, R. Gomperts, R. E. Stratmann, 
 O. Yazyev, A. J. Austin, R. Cammi, C. Pomelli, J. W. Ochterski, 
 R. L. Martin, K. Morokuma, V. G. Zakrzewski, G. A. Voth, 
 P. Salvador, J. J. Dannenberg, S. Dapprich, A. D. Daniels, 
 O. Farkas, J. B. Foresman, J. V. Ortiz, J. Cioslowski, 
 and D. J. Fox, Gaussian, Inc., Wallingford CT, 2010.
 
 ******************************************
 Gaussian 09:  EM64L-G09RevC.01 23-Sep-2011
                29-Jun-2018 
 ******************************************
 %nproc=2
 Will use up to    2 processors via shared memory.
 %mem=256MB
 %RWF=d23.rwf
 %chk=d2381
 %NoSave
 --------------------------------------
 #SP PBE1PBE/Def2TZVP geom=connectivity
 --------------------------------------
 1/38=1,57=2/1;
 2/12=2,17=6,18=5,40=1/2;
 3/5=44,7=101,11=2,16=1,25=1,30=1,74=-13/1,2,3;
 4//1;
 5/5=2,38=5/2;
 6/7=2,8=2,9=2,10=2,28=1/1;
 99/5=1,9=1/99;
 -------------
 Structure: 81
 -------------
 Charge =  0 Multiplicity = 1
 Symbolic Z-Matrix:
 H                     0.        0.        0. 
 C                     1.093     0.        0. 
 C                     1.655     1.421     0. 
 H                     1.41     -0.56     -0.885 
 H                     1.424    -0.557     0.88 
 H                     1.308     1.969    -0.883 
 Si                    3.513     1.515     0.035 
 H                     1.282     1.975     0.868 
 O                     4.148     1.127     1.507 
 O                     3.89      3.052    -0.405 
 H                     4.165     0.549    -0.886 
 H                     3.82      1.604     2.27 
 C                     5.208     3.515    -0.58 
 H                     5.167     4.545    -0.941 
 H                     5.751     2.911    -1.316 
 H                     5.768     3.496     0.361 
 
                          Input orientation:                          
 ---------------------------------------------------------------------
 Center     Atomic      Atomic             Coordinates (Angstroms)
 Number     Number       Type             X           Y           Z
 ---------------------------------------------------------------------
      1          1           0        0.000000    0.000000    0.000000
      2          6           0        1.093000    0.000000    0.000000
      3          6           0        1.655000    1.421000    0.000000
      4          1           0        1.410000   -0.560000   -0.885000
      5          1           0        1.424000   -0.557000    0.880000
      6          1           0        1.308000    1.969000   -0.883000
      7         14           0        3.513000    1.515000    0.035000
      8          1           0        1.282000    1.975000    0.868000
      9          8           0        4.148000    1.127000    1.507000
     10          8           0        3.890000    3.052000   -0.405000
     11          1           0        4.165000    0.549000   -0.886000
     12          1           0        3.820000    1.604000    2.270000
     13          6           0        5.208000    3.515000   -0.580000
     14          1           0        5.167000    4.545000   -0.941000
     15          1           0        5.751000    2.911000   -1.316000
     16          1           0        5.768000    3.496000    0.361000
 ---------------------------------------------------------------------
                    Distance matrix (angstroms):
                    1          2          3          4          5
     1  H    0.000000
     2  C    1.093000   0.000000
     3  C    2.181345   1.528098   0.000000
     4  H    1.756395   1.094218   2.183486   0.000000
     5  H    1.764207   1.092799   2.177210   1.765058   0.000000
     6  H    2.523393   2.168611   1.095629   2.531057   3.082580
     7  Si   3.825914   2.855320   1.860706   3.094291   3.061230
     8  H    2.509497   2.165588   1.095203   3.084740   2.536007
     9  O    4.554896   3.588064   2.927889   4.008027   3.263305
    10  O    4.960930   4.159560   2.796321   4.407646   4.556014
    11  H    4.293439   3.244007   2.800978   2.969833   3.443120
    12  H    4.724205   3.893873   3.142231   4.521617   3.513237
    13  C    6.309904   5.442871   4.164738   5.578840   5.747298
    14  H    6.945531   6.175758   4.793642   6.338707   6.584565
    15  H    6.578737   5.648251   4.552930   5.574754   5.964258
    16  H    6.754418   5.848757   4.620900   6.082419   5.963766
                    6          7          8          9         10
     6  H    0.000000
     7  Si   2.431227   0.000000
     8  H    1.751203   2.425459   0.000000
     9  O    3.806135   1.649410   3.056367   0.000000
    10  O    2.840440   1.642589   3.095500   2.725423   0.000000
    11  H    3.190432   1.485430   3.663561   2.461874   2.563590
    12  H    4.047812   2.257741   2.923130   0.957748   3.042569
    13  C    4.206177   2.692815   4.458899   3.343907   1.407877
    14  H    4.640153   3.587366   4.997060   4.325944   2.036437
    15  H    4.562357   2.963555   5.061414   3.704267   2.076806
    16  H    4.875537   3.019215   4.763894   3.090288   2.076241
                   11         12         13         14         15
    11  H    0.000000
    12  H    3.345502   0.000000
    13  C    3.158899   3.701481   0.000000
    14  H    4.120078   4.557895   1.092201   0.000000
    15  H    2.877384   4.277430   1.096066   1.775285   0.000000
    16  H    3.579026   3.319435   1.095190   1.776740   1.776188
                   16
    16  H    0.000000
 Stoichiometry    C3H10O2Si
 Framework group  C1[X(C3H10O2Si)]
 Deg. of freedom    42
 Full point group                 C1      NOp   1
 Largest Abelian subgroup         C1      NOp   1
 Largest concise Abelian subgroup C1      NOp   1
                         Standard orientation:                         
 ---------------------------------------------------------------------
 Center     Atomic      Atomic             Coordinates (Angstroms)
 Number     Number       Type             X           Y           Z
 ---------------------------------------------------------------------
      1          1           0       -3.629687   -0.797327   -0.249985
      2          6           0       -2.778749   -0.296131    0.218370
      3          6           0       -1.460482   -0.684132   -0.449995
      4          1           0       -2.791711   -0.572186    1.277114
      5          1           0       -2.953116    0.780814    0.155166
      6          1           0       -1.303853   -1.766616   -0.385975
      7         14           0        0.040842    0.151871    0.263694
      8          1           0       -1.493159   -0.444013   -1.518051
      9          8           0        0.149478    1.743536   -0.155056
     10          8           0        1.330394   -0.709704   -0.277454
     11          1           0        0.040603    0.186424    1.748722
     12          1           0        0.114472    1.959090   -1.087576
     13          6           0        2.660736   -0.449372    0.102724
     14          1           0        3.302828   -1.211906   -0.343551
     15          1           0        2.781748   -0.488009    1.191404
     16          1           0        2.992084    0.534699   -0.245493
 ---------------------------------------------------------------------
 Rotational constants (GHZ):      5.3771891      1.6285727      1.3629178
 Standard basis: def2TZVP (5D, 7F)
 There are   252 symmetry adapted basis functions of A   symmetry.
 Integral buffers will be    131072 words long.
 Raffenetti 2 integral format.
 Two-electron integral symmetry is turned on.
   252 basis functions,   404 primitive gaussians,   282 cartesian basis functions
    29 alpha electrons       29 beta electrons
       nuclear repulsion energy       326.1205160886 Hartrees.
 NAtoms=   16 NActive=   16 NUniq=   16 SFac= 1.00D+00 NAtFMM=   60 NAOKFM=F Big=F
 One-electron integrals computed using PRISM.
   1 Symmetry operations used in ECPInt.
 ECPInt:  NShTT=    5886 NPrTT=   17754 LenC2=    5727 LenP2D=   13760.
 LDataN:  DoStor=T MaxTD1= 6 Len=  172
 NBasis=   252 RedAO= T  NBF=   252
 NBsUse=   252 1.00D-06 NBFU=   252
 Harris functional with IExCor= 1009 diagonalized for initial guess.
 ExpMin= 7.01D-02 ExpMax= 4.48D+04 ExpMxC= 1.53D+03 IAcc=2 IRadAn=         4 AccDes= 0.00D+00
 HarFok:  IExCor= 1009 AccDes= 0.00D+00 IRadAn=         4 IDoV= 1
 ScaDFX=  1.000000  1.000000  1.000000  1.000000
 FoFCou: FMM=F IPFlag=           0 FMFlag=      100000 FMFlg1=           0
         NFxFlg=           0 DoJE=T BraDBF=F KetDBF=T FulRan=T
         Omega=  0.000000  0.000000  1.000000  0.000000  0.000000 ICntrl=     500 IOpCl=  0
         NMat0=    1 NMatS0=    1 NMatT0=    0 NMatD0=    1 NMtDS0=    0 NMtDT0=    0
         I1Cent=           4 NGrid=           0.
 Petite list used in FoFCou.
 Initial guess orbital symmetries:
       Occupied  (A) (A) (A) (A) (A) (A) (A) (A) (A) (A) (A) (A)
                 (A) (A) (A) (A) (A) (A) (A) (A) (A) (A) (A) (A)
                 (A) (A) (A) (A) (A)
       Virtual   (A) (A) (A) (A) (A) (A) (A) (A) (A) (A) (A) (A)
                 (A) (A) (A) (A) (A) (A) (A) (A) (A) (A) (A) (A)
                 (A) (A) (A) (A) (A) (A) (A) (A) (A) (A) (A) (A)
                 (A) (A) (A) (A) (A) (A) (A) (A) (A) (A) (A) (A)
                 (A) (A) (A) (A) (A) (A) (A) (A) (A) (A) (A) (A)
                 (A) (A) (A) (A) (A) (A) (A) (A) (A) (A) (A) (A)
                 (A) (A) (A) (A) (A) (A) (A) (A) (A) (A) (A) (A)
                 (A) (A) (A) (A) (A) (A) (A) (A) (A) (A) (A) (A)
                 (A) (A) (A) (A) (A) (A) (A) (A) (A) (A) (A) (A)
                 (A) (A) (A) (A) (A) (A) (A) (A) (A) (A) (A) (A)
                 (A) (A) (A) (A) (A) (A) (A) (A) (A) (A) (A) (A)
                 (A) (A) (A) (A) (A) (A) (A) (A) (A) (A) (A) (A)
                 (A) (A) (A) (A) (A) (A) (A) (A) (A) (A) (A) (A)
                 (A) (A) (A) (A) (A) (A) (A) (A) (A) (A) (A) (A)
                 (A) (A) (A) (A) (A) (A) (A) (A) (A) (A) (A) (A)
                 (A) (A) (A) (A) (A) (A) (A) (A) (A) (A) (A) (A)
                 (A) (A) (A) (A) (A) (A) (A) (A) (A) (A) (A) (A)
                 (A) (A) (A) (A) (A) (A) (A) (A) (A) (A) (A) (A)
                 (A) (A) (A) (A) (A) (A) (A)
 The electronic state of the initial guess is 1-A.
 Requested convergence on RMS density matrix=1.00D-08 within 128 cycles.
 Requested convergence on MAX density matrix=1.00D-06.
 Requested convergence on             energy=1.00D-06.
 No special actions if energy rises.
 Integral accuracy reduced to 1.0D-05 until final iterations.
 Initial convergence to 1.0D-05 achieved.  Increase integral accuracy.
 SCF Done:  E(RPBE1PBE) =  -560.060950798     A.U. after   12 cycles
             Convg  =    0.5926D-08             -V/T =  2.0033

 **********************************************************************

            Population analysis using the SCF density.

 **********************************************************************

 Orbital symmetries:
       Occupied  (A) (A) (A) (A) (A) (A) (A) (A) (A) (A) (A) (A)
                 (A) (A) (A) (A) (A) (A) (A) (A) (A) (A) (A) (A)
                 (A) (A) (A) (A) (A)
       Virtual   (A) (A) (A) (A) (A) (A) (A) (A) (A) (A) (A) (A)
                 (A) (A) (A) (A) (A) (A) (A) (A) (A) (A) (A) (A)
                 (A) (A) (A) (A) (A) (A) (A) (A) (A) (A) (A) (A)
                 (A) (A) (A) (A) (A) (A) (A) (A) (A) (A) (A) (A)
                 (A) (A) (A) (A) (A) (A) (A) (A) (A) (A) (A) (A)
                 (A) (A) (A) (A) (A) (A) (A) (A) (A) (A) (A) (A)
                 (A) (A) (A) (A) (A) (A) (A) (A) (A) (A) (A) (A)
                 (A) (A) (A) (A) (A) (A) (A) (A) (A) (A) (A) (A)
                 (A) (A) (A) (A) (A) (A) (A) (A) (A) (A) (A) (A)
                 (A) (A) (A) (A) (A) (A) (A) (A) (A) (A) (A) (A)
                 (A) (A) (A) (A) (A) (A) (A) (A) (A) (A) (A) (A)
                 (A) (A) (A) (A) (A) (A) (A) (A) (A) (A) (A) (A)
                 (A) (A) (A) (A) (A) (A) (A) (A) (A) (A) (A) (A)
                 (A) (A) (A) (A) (A) (A) (A) (A) (A) (A) (A) (A)
                 (A) (A) (A) (A) (A) (A) (A) (A) (A) (A) (A) (A)
                 (A) (A) (A) (A) (A) (A) (A) (A) (A) (A) (A) (A)
                 (A) (A) (A) (A) (A) (A) (A) (A) (A) (A) (A) (A)
                 (A) (A) (A) (A) (A) (A) (A) (A) (A) (A) (A) (A)
                 (A) (A) (A) (A) (A) (A) (A)
 The electronic state is 1-A.
 Alpha  occ. eigenvalues --  -66.25404 -19.20281 -19.19983 -10.26431 -10.21471
 Alpha  occ. eigenvalues --  -10.20842  -5.33063  -3.66592  -3.66471  -3.66338
 Alpha  occ. eigenvalues --   -1.04431  -1.02306  -0.78079  -0.70574  -0.63704
 Alpha  occ. eigenvalues --   -0.56902  -0.50908  -0.46915  -0.46284  -0.45792
 Alpha  occ. eigenvalues --   -0.44742  -0.39739  -0.38570  -0.38215  -0.36102
 Alpha  occ. eigenvalues --   -0.35643  -0.31893  -0.30448  -0.29633
 Alpha virt. eigenvalues --    0.03017   0.04622   0.06046   0.07098   0.09771
 Alpha virt. eigenvalues --    0.10221   0.11519   0.12425   0.12479   0.12981
 Alpha virt. eigenvalues --    0.13507   0.14690   0.16077   0.16988   0.18661
 Alpha virt. eigenvalues --    0.21781   0.22567   0.23151   0.24464   0.25317
 Alpha virt. eigenvalues --    0.25878   0.28453   0.29684   0.29999   0.31701
 Alpha virt. eigenvalues --    0.34498   0.37125   0.38877   0.39604   0.41164
 Alpha virt. eigenvalues --    0.42000   0.42816   0.43522   0.44620   0.45291
 Alpha virt. eigenvalues --    0.46509   0.46592   0.48108   0.49126   0.50675
 Alpha virt. eigenvalues --    0.51637   0.53755   0.54772   0.57977   0.58348
 Alpha virt. eigenvalues --    0.61384   0.62441   0.64531   0.66909   0.67548
 Alpha virt. eigenvalues --    0.73164   0.74090   0.75088   0.77843   0.79593
 Alpha virt. eigenvalues --    0.83489   0.85727   0.86766   0.87661   0.90445
 Alpha virt. eigenvalues --    0.94216   0.95279   0.98549   1.00394   1.03511
 Alpha virt. eigenvalues --    1.04713   1.06267   1.06428   1.08088   1.08779
 Alpha virt. eigenvalues --    1.12092   1.14076   1.15113   1.21964   1.22375
 Alpha virt. eigenvalues --    1.26613   1.27864   1.32041   1.37471   1.40027
 Alpha virt. eigenvalues --    1.42765   1.46025   1.48327   1.49683   1.51764
 Alpha virt. eigenvalues --    1.52836   1.55191   1.55471   1.56889   1.58251
 Alpha virt. eigenvalues --    1.60404   1.60993   1.62896   1.63637   1.64073
 Alpha virt. eigenvalues --    1.68013   1.72166   1.76415   1.78351   1.79350
 Alpha virt. eigenvalues --    1.80747   1.83543   1.86380   1.86987   1.90928
 Alpha virt. eigenvalues --    1.94025   1.98413   1.99051   2.00907   2.02721
 Alpha virt. eigenvalues --    2.04121   2.08469   2.11037   2.13013   2.15514
 Alpha virt. eigenvalues --    2.16598   2.20254   2.25038   2.27454   2.30918
 Alpha virt. eigenvalues --    2.32598   2.33110   2.34479   2.35055   2.36139
 Alpha virt. eigenvalues --    2.36833   2.41036   2.42594   2.46771   2.48242
 Alpha virt. eigenvalues --    2.50153   2.52873   2.54547   2.57515   2.57876
 Alpha virt. eigenvalues --    2.59713   2.61770   2.66715   2.67682   2.69514
 Alpha virt. eigenvalues --    2.72051   2.77253   2.79607   2.82456   2.84685
 Alpha virt. eigenvalues --    2.87637   2.92831   2.97685   2.99653   3.01908
 Alpha virt. eigenvalues --    3.04313   3.09429   3.09770   3.13934   3.15240
 Alpha virt. eigenvalues --    3.19358   3.22371   3.23821   3.27076   3.30581
 Alpha virt. eigenvalues --    3.32256   3.32951   3.36897   3.39052   3.42210
 Alpha virt. eigenvalues --    3.44358   3.46350   3.50048   3.53964   3.55106
 Alpha virt. eigenvalues --    3.58640   3.60163   3.63362   3.68496   3.76808
 Alpha virt. eigenvalues --    3.81104   3.86484   3.91945   3.96639   4.03722
 Alpha virt. eigenvalues --    4.19013   4.24000   4.25637   4.34485   4.36893
 Alpha virt. eigenvalues --    4.41821   4.46805   4.54853   4.56557   4.79619
 Alpha virt. eigenvalues --    5.15564   5.16925   5.17940   5.18217   5.28231
 Alpha virt. eigenvalues --    5.29125   5.38634   5.41979   5.45407   5.50185
 Alpha virt. eigenvalues --    5.80165   5.86665   6.02966   6.22808   6.37717
 Alpha virt. eigenvalues --    6.41873   6.53438   6.58255   6.60236   6.66280
 Alpha virt. eigenvalues --    6.67643   6.79737   6.82253   6.97483   7.06194
 Alpha virt. eigenvalues --    7.15955   7.22735  11.90361  22.37670  22.39838
 Alpha virt. eigenvalues --   22.45756  43.64378  43.92739
          Condensed to atoms (all electrons):
              1          2          3          4          5          6
     1  H    0.558132   0.412807  -0.036195  -0.027357  -0.027858  -0.007155
     2  C    0.412807   4.921990   0.309676   0.411675   0.406994  -0.031004
     3  C   -0.036195   0.309676   5.062454  -0.037680  -0.039088   0.372002
     4  H   -0.027357   0.411675  -0.037680   0.552399  -0.024133  -0.004382
     5  H   -0.027858   0.406994  -0.039088  -0.024133   0.554358   0.008186
     6  H   -0.007155  -0.031004   0.372002  -0.004382   0.008186   0.566022
     7  Si   0.007717  -0.028269   0.421370  -0.007572  -0.005948  -0.013324
     8  H   -0.007070  -0.032618   0.379294   0.007978  -0.003966  -0.021854
     9  O   -0.000169  -0.005195  -0.038582  -0.000160   0.004667   0.002301
    10  O   -0.000068   0.001533  -0.032689  -0.000003   0.000158   0.003127
    11  H   -0.000124   0.005640  -0.044149   0.002375   0.000299   0.001268
    12  H    0.000005   0.000063  -0.003124   0.000029  -0.000016  -0.000001
    13  C    0.000008  -0.000176   0.001923   0.000001   0.000002   0.000118
    14  H    0.000000  -0.000011  -0.000157   0.000000   0.000000  -0.000054
    15  H    0.000001   0.000042  -0.000099   0.000012  -0.000004  -0.000077
    16  H    0.000000   0.000015   0.000577  -0.000003  -0.000002   0.000043
              7          8          9         10         11         12
     1  H    0.007717  -0.007070  -0.000169  -0.000068  -0.000124   0.000005
     2  C   -0.028269  -0.032618  -0.005195   0.001533   0.005640   0.000063
     3  C    0.421370   0.379294  -0.038582  -0.032689  -0.044149  -0.003124
     4  H   -0.007572   0.007978  -0.000160  -0.000003   0.002375   0.000029
     5  H   -0.005948  -0.003966   0.004667   0.000158   0.000299  -0.000016
     6  H   -0.013324  -0.021854   0.002301   0.003127   0.001268  -0.000001
     7  Si  11.878556  -0.022235   0.470425   0.463270   0.386599  -0.027785
     8  H   -0.022235   0.586602  -0.000845   0.000766   0.002833   0.001862
     9  O    0.470425  -0.000845   7.847217  -0.032870  -0.016025   0.299435
    10  O    0.463270   0.000766  -0.032870   7.834341  -0.026951  -0.001037
    11  H    0.386599   0.002833  -0.016025  -0.026951   0.743977   0.004204
    12  H   -0.027785   0.001862   0.299435  -0.001037   0.004204   0.406299
    13  C   -0.048208   0.000035  -0.007646   0.259152   0.001980   0.000868
    14  H    0.006941   0.000021   0.000079  -0.040185  -0.000277   0.000023
    15  H   -0.015348   0.000023  -0.000538  -0.043199   0.010175  -0.000059
    16  H   -0.005465  -0.000018   0.006706  -0.043980  -0.002049   0.000313
             13         14         15         16
     1  H    0.000008   0.000000   0.000001   0.000000
     2  C   -0.000176  -0.000011   0.000042   0.000015
     3  C    0.001923  -0.000157  -0.000099   0.000577
     4  H    0.000001   0.000000   0.000012  -0.000003
     5  H    0.000002   0.000000  -0.000004  -0.000002
     6  H    0.000118  -0.000054  -0.000077   0.000043
     7  Si  -0.048208   0.006941  -0.015348  -0.005465
     8  H    0.000035   0.000021   0.000023  -0.000018
     9  O   -0.007646   0.000079  -0.000538   0.006706
    10  O    0.259152  -0.040185  -0.043199  -0.043980
    11  H    0.001980  -0.000277   0.010175  -0.002049
    12  H    0.000868   0.000023  -0.000059   0.000313
    13  C    4.769736   0.402523   0.416649   0.412453
    14  H    0.402523   0.566973  -0.031005  -0.033597
    15  H    0.416649  -0.031005   0.593660  -0.047714
    16  H    0.412453  -0.033597  -0.047714   0.593557
 Mulliken atomic charges:
              1
     1  H    0.127326
     2  C   -0.373162
     3  C   -0.315531
     4  H    0.126822
     5  H    0.126351
     6  H    0.124786
     7  Si   0.539276
     8  H    0.109192
     9  O   -0.528798
    10  O   -0.341365
    11  H   -0.069776
    12  H    0.318923
    13  C   -0.209418
    14  H    0.128725
    15  H    0.117483
    16  H    0.119166
 Sum of Mulliken atomic charges =   0.00000
 Mulliken charges with hydrogens summed into heavy atoms:
              1
     2  C    0.007336
     3  C   -0.081553
     7  Si   0.469500
     9  O   -0.209876
    10  O   -0.341365
    13  C    0.155957
 Sum of Mulliken charges with hydrogens summed into heavy atoms =   0.00000
 Electronic spatial extent (au):  <R**2>=            936.0551
 Charge=              0.0000 electrons
 Dipole moment (field-independent basis, Debye):
    X=              0.1086    Y=             -0.1249    Z=             -1.1013  Tot=              1.1137
 Quadrupole moment (field-independent basis, Debye-Ang):
   XX=            -41.4654   YY=            -47.2688   ZZ=            -43.8052
   XY=              0.3802   XZ=              0.8897   YZ=             -3.9587
 Traceless Quadrupole moment (field-independent basis, Debye-Ang):
   XX=              2.7144   YY=             -3.0890   ZZ=              0.3746
   XY=              0.3802   XZ=              0.8897   YZ=             -3.9587
 Octapole moment (field-independent basis, Debye-Ang**2):
  XXX=             20.9154  YYY=              0.9717  ZZZ=             -8.4504  XYY=              0.9956
  XXY=             -1.0708  XXZ=             -0.7572  XZZ=              2.2091  YZZ=              6.0653
  YYZ=             -7.8525  XYZ=             -0.7122
 Hexadecapole moment (field-independent basis, Debye-Ang**3):
 XXXX=           -880.7889 YYYY=           -240.6895 ZZZZ=           -115.2591 XXXY=             -9.5979
 XXXZ=              1.6285 YYYX=             -4.0822 YYYZ=            -17.4694 ZZZX=             -0.1316
 ZZZY=            -10.5368 XXYY=           -187.5228 XXZZ=           -170.8147 YYZZ=            -50.5536
 XXYZ=             -0.3922 YYXZ=             -2.2906 ZZXY=             -0.1003
 N-N= 3.261205160886D+02 E-N=-1.976251595284D+03  KE= 5.582406572669D+02
 1\1\GINC-TARSUS2\SP\RPBE1PBE\def2TZVP\C3H10O2Si1\RENATO\29-Jun-2018\0\
 \#SP PBE1PBE/Def2TZVP geom=connectivity\\Structure: 81\\0,1\H,0,0.,0.,
 0.\C,0,1.093,0.,0.\C,0,1.655,1.421,0.\H,0,1.41,-0.56,-0.885\H,0,1.424,
 -0.557,0.88\H,0,1.308,1.969,-0.883\Si,0,3.513,1.515,0.035\H,0,1.282,1.
 975,0.868\O,0,4.148,1.127,1.507\O,0,3.89,3.052,-0.405\H,0,4.165,0.549,
 -0.886\H,0,3.82,1.604,2.27\C,0,5.208,3.515,-0.58\H,0,5.167,4.545,-0.94
 1\H,0,5.751,2.911,-1.316\H,0,5.768,3.496,0.361\\Version=EM64L-G09RevC.
 01\State=1-A\HF=-560.0609508\RMSD=5.926e-09\Dipole=-0.1749496,0.326032
 9,0.2346672\Quadrupole=0.2780036,-1.9802083,1.7022047,2.6390842,-1.338
 8359,1.298856\PG=C01 [X(C3H10O2Si1)]\\@


 LEARN FROM YESTERDAY,
 LIVE FOR TODAY,
 LOOK TO TOMORROW,
 REST THIS AFTERNOON.

           -- SNOOPY
 Job cpu time:  0 days  0 hours  9 minutes 11.5 seconds.
 File lengths (MBytes):  RWF=     40 Int=      0 D2E=      0 Chk=      3 Scr=      1
 Normal termination of Gaussian 09 at Fri Jun 29 15:49:25 2018.
