 Entering Gaussian System, Link 0=g09
 Initial command:
 /usr/local/gaussian09/g09/l1.exe /scratch/renato/Gau-32690.inp -scrdir=/scratch/renato/
 Entering Link 1 = /usr/local/gaussian09/g09/l1.exe PID=     32692.
  
 Copyright (c) 1988,1990,1992,1993,1995,1998,2003,2009,2011,
            Gaussian, Inc.  All Rights Reserved.
  
 This is part of the Gaussian(R) 09 program.  It is based on
 the Gaussian(R) 03 system (copyright 2003, Gaussian, Inc.),
 the Gaussian(R) 98 system (copyright 1998, Gaussian, Inc.),
 the Gaussian(R) 94 system (copyright 1995, Gaussian, Inc.),
 the Gaussian 92(TM) system (copyright 1992, Gaussian, Inc.),
 the Gaussian 90(TM) system (copyright 1990, Gaussian, Inc.),
 the Gaussian 88(TM) system (copyright 1988, Gaussian, Inc.),
 the Gaussian 86(TM) system (copyright 1986, Carnegie Mellon
 University), and the Gaussian 82(TM) system (copyright 1983,
 Carnegie Mellon University). Gaussian is a federally registered
 trademark of Gaussian, Inc.
  
 This software contains proprietary and confidential information,
 including trade secrets, belonging to Gaussian, Inc.
  
 This software is provided under written license and may be
 used, copied, transmitted, or stored only in accord with that
 written license.
  
 The following legend is applicable only to US Government
 contracts under FAR:
  
                    RESTRICTED RIGHTS LEGEND
  
 Use, reproduction and disclosure by the US Government is
 subject to restrictions as set forth in subparagraphs (a)
 and (c) of the Commercial Computer Software - Restricted
 Rights clause in FAR 52.227-19.
  
 Gaussian, Inc.
 340 Quinnipiac St., Bldg. 40, Wallingford CT 06492
  
  
 ---------------------------------------------------------------
 Warning -- This program may not be used in any manner that
 competes with the business of Gaussian, Inc. or will provide
 assistance to any competitor of Gaussian, Inc.  The licensee
 of this program is prohibited from giving any competitor of
 Gaussian, Inc. access to this program.  By using this program,
 the user acknowledges that Gaussian, Inc. is engaged in the
 business of creating and licensing software in the field of
 computational chemistry and represents and warrants to the
 licensee that it is not a competitor of Gaussian, Inc. and that
 it will not use this program in any manner prohibited above.
 ---------------------------------------------------------------
  

 Cite this work as:
 Gaussian 09, Revision C.01,
 M. J. Frisch, G. W. Trucks, H. B. Schlegel, G. E. Scuseria, 
 M. A. Robb, J. R. Cheeseman, G. Scalmani, V. Barone, B. Mennucci, 
 G. A. Petersson, H. Nakatsuji, M. Caricato, X. Li, H. P. Hratchian, 
 A. F. Izmaylov, J. Bloino, G. Zheng, J. L. Sonnenberg, M. Hada, 
 M. Ehara, K. Toyota, R. Fukuda, J. Hasegawa, M. Ishida, T. Nakajima, 
 Y. Honda, O. Kitao, H. Nakai, T. Vreven, J. A. Montgomery, Jr., 
 J. E. Peralta, F. Ogliaro, M. Bearpark, J. J. Heyd, E. Brothers, 
 K. N. Kudin, V. N. Staroverov, T. Keith, R. Kobayashi, J. Normand, 
 K. Raghavachari, A. Rendell, J. C. Burant, S. S. Iyengar, J. Tomasi, 
 M. Cossi, N. Rega, J. M. Millam, M. Klene, J. E. Knox, J. B. Cross, 
 V. Bakken, C. Adamo, J. Jaramillo, R. Gomperts, R. E. Stratmann, 
 O. Yazyev, A. J. Austin, R. Cammi, C. Pomelli, J. W. Ochterski, 
 R. L. Martin, K. Morokuma, V. G. Zakrzewski, G. A. Voth, 
 P. Salvador, J. J. Dannenberg, S. Dapprich, A. D. Daniels, 
 O. Farkas, J. B. Foresman, J. V. Ortiz, J. Cioslowski, 
 and D. J. Fox, Gaussian, Inc., Wallingford CT, 2010.
 
 ******************************************
 Gaussian 09:  EM64L-G09RevC.01 23-Sep-2011
                29-Jun-2018 
 ******************************************
 %nproc=2
 Will use up to    2 processors via shared memory.
 %mem=256MB
 %RWF=d23.rwf
 %chk=d2383
 %NoSave
 --------------------------------------
 #SP PBE1PBE/Def2TZVP geom=connectivity
 --------------------------------------
 1/38=1,57=2/1;
 2/12=2,17=6,18=5,40=1/2;
 3/5=44,7=101,11=2,16=1,25=1,30=1,74=-13/1,2,3;
 4//1;
 5/5=2,38=5/2;
 6/7=2,8=2,9=2,10=2,28=1/1;
 99/5=1,9=1/99;
 -------------
 Structure: 83
 -------------
 Charge =  0 Multiplicity = 1
 Symbolic Z-Matrix:
 H                     0.        0.        0. 
 C                     1.093     0.        0. 
 C                     1.655     1.421     0. 
 H                     1.41     -0.56     -0.885 
 H                     1.424    -0.557     0.88 
 H                     1.308     1.969    -0.883 
 Si                    3.513     1.515     0.035 
 H                     1.282     1.975     0.868 
 O                     4.153     1.026     1.474 
 O                     3.886     3.079    -0.298 
 H                     4.163     0.617    -0.953 
 H                     3.828     1.449     2.27 
 C                     5.204     3.555    -0.445 
 H                     5.16      4.608    -0.733 
 H                     5.744     3.005    -1.224 
 H                     5.767     3.472     0.49 
 
                          Input orientation:                          
 ---------------------------------------------------------------------
 Center     Atomic      Atomic             Coordinates (Angstroms)
 Number     Number       Type             X           Y           Z
 ---------------------------------------------------------------------
      1          1           0        0.000000    0.000000    0.000000
      2          6           0        1.093000    0.000000    0.000000
      3          6           0        1.655000    1.421000    0.000000
      4          1           0        1.410000   -0.560000   -0.885000
      5          1           0        1.424000   -0.557000    0.880000
      6          1           0        1.308000    1.969000   -0.883000
      7         14           0        3.513000    1.515000    0.035000
      8          1           0        1.282000    1.975000    0.868000
      9          8           0        4.153000    1.026000    1.474000
     10          8           0        3.886000    3.079000   -0.298000
     11          1           0        4.163000    0.617000   -0.953000
     12          1           0        3.828000    1.449000    2.270000
     13          6           0        5.204000    3.555000   -0.445000
     14          1           0        5.160000    4.608000   -0.733000
     15          1           0        5.744000    3.005000   -1.224000
     16          1           0        5.767000    3.472000    0.490000
 ---------------------------------------------------------------------
                    Distance matrix (angstroms):
                    1          2          3          4          5
     1  H    0.000000
     2  C    1.093000   0.000000
     3  C    2.181345   1.528098   0.000000
     4  H    1.756395   1.094218   2.183486   0.000000
     5  H    1.764207   1.092799   2.177210   1.765058   0.000000
     6  H    2.523393   2.168611   1.095629   2.531057   3.082580
     7  Si   3.825914   2.855320   1.860706   3.094291   3.061230
     8  H    2.509497   2.165588   1.095203   3.084740   2.536007
     9  O    4.524684   3.548091   2.927235   3.950231   3.210322
    10  O    4.966895   4.167720   2.795555   4.440435   4.546386
    11  H    4.315028   3.273194   2.800837   2.994823   3.498612
    12  H    4.680394   3.838323   3.142549   4.453856   3.425690
    13  C    6.318043   5.453107   4.165019   5.614380   5.740433
    14  H    6.956763   6.189624   4.793671   6.387005   6.575461
    15  H    6.597101   5.670979   4.552708   5.622073   5.981393
    16  H    6.749309   5.843044   4.621174   6.093529   5.936884
                    6          7          8          9         10
     6  H    0.000000
     7  Si   2.431227   0.000000
     8  H    1.751203   2.425459   0.000000
     9  O    3.812968   1.649073   3.083906   0.000000
    10  O    2.867126   1.641985   3.059279   2.725084   0.000000
    11  H    3.159720   1.484940   3.668837   2.461242   2.562654
    12  H    4.069669   2.258054   2.953709   0.958212   3.042185
    13  C    4.229191   2.692857   4.427466   3.344100   1.409010
    14  H    4.671694   3.587350   4.953259   4.326156   2.037190
    15  H    4.568115   2.963535   5.034561   3.704987   2.077286
    16  H    4.901716   3.019502   4.743324   3.091305   2.076910
                   11         12         13         14         15
    11  H    0.000000
    12  H    3.345471   0.000000
    13  C    3.158099   3.701329   0.000000
    14  H    4.119525   4.557578   1.092561   0.000000
    15  H    2.876725   4.277877   1.095875   1.775316   0.000000
    16  H    3.578560   3.319736   1.094570   1.776140   1.776630
                   16
    16  H    0.000000
 Stoichiometry    C3H10O2Si
 Framework group  C1[X(C3H10O2Si)]
 Deg. of freedom    42
 Full point group                 C1      NOp   1
 Largest Abelian subgroup         C1      NOp   1
 Largest concise Abelian subgroup C1      NOp   1
                         Standard orientation:                         
 ---------------------------------------------------------------------
 Center     Atomic      Atomic             Coordinates (Angstroms)
 Number     Number       Type             X           Y           Z
 ---------------------------------------------------------------------
      1          1           0       -3.628091   -0.792698   -0.258585
      2          6           0       -2.780578   -0.271790    0.194212
      3          6           0       -1.453806   -0.719223   -0.417805
      4          1           0       -2.819691   -0.476705    1.268360
      5          1           0       -2.939013    0.800600    0.056055
      6          1           0       -1.313196   -1.796871   -0.278858
      7         14           0        0.043211    0.144182    0.271903
      8          1           0       -1.460605   -0.550230   -1.499870
      9          8           0        0.125187    1.732514   -0.163900
     10          8           0        1.338011   -0.705319   -0.273949
     11          1           0        0.058080    0.193868    1.755937
     12          1           0        0.078855    1.938429   -1.098577
     13          6           0        2.669450   -0.422731    0.090363
     14          1           0        3.317134   -1.181317   -0.355442
     15          1           0        2.801591   -0.450000    1.177900
     16          1           0        2.984001    0.561277   -0.271397
 ---------------------------------------------------------------------
 Rotational constants (GHZ):      5.4421327      1.6267609      1.3623137
 Standard basis: def2TZVP (5D, 7F)
 There are   252 symmetry adapted basis functions of A   symmetry.
 Integral buffers will be    131072 words long.
 Raffenetti 2 integral format.
 Two-electron integral symmetry is turned on.
   252 basis functions,   404 primitive gaussians,   282 cartesian basis functions
    29 alpha electrons       29 beta electrons
       nuclear repulsion energy       326.2140360999 Hartrees.
 NAtoms=   16 NActive=   16 NUniq=   16 SFac= 1.00D+00 NAtFMM=   60 NAOKFM=F Big=F
 One-electron integrals computed using PRISM.
   1 Symmetry operations used in ECPInt.
 ECPInt:  NShTT=    5886 NPrTT=   17754 LenC2=    5728 LenP2D=   13762.
 LDataN:  DoStor=T MaxTD1= 6 Len=  172
 NBasis=   252 RedAO= T  NBF=   252
 NBsUse=   252 1.00D-06 NBFU=   252
 Harris functional with IExCor= 1009 diagonalized for initial guess.
 ExpMin= 7.01D-02 ExpMax= 4.48D+04 ExpMxC= 1.53D+03 IAcc=2 IRadAn=         4 AccDes= 0.00D+00
 HarFok:  IExCor= 1009 AccDes= 0.00D+00 IRadAn=         4 IDoV= 1
 ScaDFX=  1.000000  1.000000  1.000000  1.000000
 FoFCou: FMM=F IPFlag=           0 FMFlag=      100000 FMFlg1=           0
         NFxFlg=           0 DoJE=T BraDBF=F KetDBF=T FulRan=T
         Omega=  0.000000  0.000000  1.000000  0.000000  0.000000 ICntrl=     500 IOpCl=  0
         NMat0=    1 NMatS0=    1 NMatT0=    0 NMatD0=    1 NMtDS0=    0 NMtDT0=    0
         I1Cent=           4 NGrid=           0.
 Petite list used in FoFCou.
 Initial guess orbital symmetries:
       Occupied  (A) (A) (A) (A) (A) (A) (A) (A) (A) (A) (A) (A)
                 (A) (A) (A) (A) (A) (A) (A) (A) (A) (A) (A) (A)
                 (A) (A) (A) (A) (A)
       Virtual   (A) (A) (A) (A) (A) (A) (A) (A) (A) (A) (A) (A)
                 (A) (A) (A) (A) (A) (A) (A) (A) (A) (A) (A) (A)
                 (A) (A) (A) (A) (A) (A) (A) (A) (A) (A) (A) (A)
                 (A) (A) (A) (A) (A) (A) (A) (A) (A) (A) (A) (A)
                 (A) (A) (A) (A) (A) (A) (A) (A) (A) (A) (A) (A)
                 (A) (A) (A) (A) (A) (A) (A) (A) (A) (A) (A) (A)
                 (A) (A) (A) (A) (A) (A) (A) (A) (A) (A) (A) (A)
                 (A) (A) (A) (A) (A) (A) (A) (A) (A) (A) (A) (A)
                 (A) (A) (A) (A) (A) (A) (A) (A) (A) (A) (A) (A)
                 (A) (A) (A) (A) (A) (A) (A) (A) (A) (A) (A) (A)
                 (A) (A) (A) (A) (A) (A) (A) (A) (A) (A) (A) (A)
                 (A) (A) (A) (A) (A) (A) (A) (A) (A) (A) (A) (A)
                 (A) (A) (A) (A) (A) (A) (A) (A) (A) (A) (A) (A)
                 (A) (A) (A) (A) (A) (A) (A) (A) (A) (A) (A) (A)
                 (A) (A) (A) (A) (A) (A) (A) (A) (A) (A) (A) (A)
                 (A) (A) (A) (A) (A) (A) (A) (A) (A) (A) (A) (A)
                 (A) (A) (A) (A) (A) (A) (A) (A) (A) (A) (A) (A)
                 (A) (A) (A) (A) (A) (A) (A) (A) (A) (A) (A) (A)
                 (A) (A) (A) (A) (A) (A) (A)
 The electronic state of the initial guess is 1-A.
 Requested convergence on RMS density matrix=1.00D-08 within 128 cycles.
 Requested convergence on MAX density matrix=1.00D-06.
 Requested convergence on             energy=1.00D-06.
 No special actions if energy rises.
 Integral accuracy reduced to 1.0D-05 until final iterations.
 Initial convergence to 1.0D-05 achieved.  Increase integral accuracy.
 SCF Done:  E(RPBE1PBE) =  -560.061090610     A.U. after   12 cycles
             Convg  =    0.6206D-08             -V/T =  2.0033

 **********************************************************************

            Population analysis using the SCF density.

 **********************************************************************

 Orbital symmetries:
       Occupied  (A) (A) (A) (A) (A) (A) (A) (A) (A) (A) (A) (A)
                 (A) (A) (A) (A) (A) (A) (A) (A) (A) (A) (A) (A)
                 (A) (A) (A) (A) (A)
       Virtual   (A) (A) (A) (A) (A) (A) (A) (A) (A) (A) (A) (A)
                 (A) (A) (A) (A) (A) (A) (A) (A) (A) (A) (A) (A)
                 (A) (A) (A) (A) (A) (A) (A) (A) (A) (A) (A) (A)
                 (A) (A) (A) (A) (A) (A) (A) (A) (A) (A) (A) (A)
                 (A) (A) (A) (A) (A) (A) (A) (A) (A) (A) (A) (A)
                 (A) (A) (A) (A) (A) (A) (A) (A) (A) (A) (A) (A)
                 (A) (A) (A) (A) (A) (A) (A) (A) (A) (A) (A) (A)
                 (A) (A) (A) (A) (A) (A) (A) (A) (A) (A) (A) (A)
                 (A) (A) (A) (A) (A) (A) (A) (A) (A) (A) (A) (A)
                 (A) (A) (A) (A) (A) (A) (A) (A) (A) (A) (A) (A)
                 (A) (A) (A) (A) (A) (A) (A) (A) (A) (A) (A) (A)
                 (A) (A) (A) (A) (A) (A) (A) (A) (A) (A) (A) (A)
                 (A) (A) (A) (A) (A) (A) (A) (A) (A) (A) (A) (A)
                 (A) (A) (A) (A) (A) (A) (A) (A) (A) (A) (A) (A)
                 (A) (A) (A) (A) (A) (A) (A) (A) (A) (A) (A) (A)
                 (A) (A) (A) (A) (A) (A) (A) (A) (A) (A) (A) (A)
                 (A) (A) (A) (A) (A) (A) (A) (A) (A) (A) (A) (A)
                 (A) (A) (A) (A) (A) (A) (A) (A) (A) (A) (A) (A)
                 (A) (A) (A) (A) (A) (A) (A)
 The electronic state is 1-A.
 Alpha  occ. eigenvalues --  -66.25382 -19.20284 -19.19984 -10.26444 -10.21461
 Alpha  occ. eigenvalues --  -10.20836  -5.33044  -3.66574  -3.66452  -3.66319
 Alpha  occ. eigenvalues --   -1.04413  -1.02294  -0.78070  -0.70589  -0.63697
 Alpha  occ. eigenvalues --   -0.56895  -0.50889  -0.46934  -0.46282  -0.45775
 Alpha  occ. eigenvalues --   -0.44736  -0.39685  -0.38582  -0.38267  -0.36062
 Alpha  occ. eigenvalues --   -0.35664  -0.31911  -0.30454  -0.29628
 Alpha virt. eigenvalues --    0.02990   0.04645   0.06094   0.07126   0.09726
 Alpha virt. eigenvalues --    0.10286   0.11444   0.12390   0.12589   0.12978
 Alpha virt. eigenvalues --    0.13612   0.14698   0.15966   0.16973   0.18629
 Alpha virt. eigenvalues --    0.21659   0.22521   0.23156   0.24418   0.25262
 Alpha virt. eigenvalues --    0.25897   0.28455   0.29740   0.29974   0.31719
 Alpha virt. eigenvalues --    0.34520   0.37072   0.38775   0.39692   0.41179
 Alpha virt. eigenvalues --    0.41960   0.42930   0.43506   0.44653   0.45390
 Alpha virt. eigenvalues --    0.46535   0.46633   0.48201   0.49097   0.50705
 Alpha virt. eigenvalues --    0.51737   0.53721   0.54814   0.57858   0.58638
 Alpha virt. eigenvalues --    0.61448   0.61971   0.64673   0.66715   0.67622
 Alpha virt. eigenvalues --    0.73471   0.74127   0.74563   0.78107   0.79530
 Alpha virt. eigenvalues --    0.83601   0.85935   0.86466   0.87571   0.90451
 Alpha virt. eigenvalues --    0.94354   0.95529   0.98439   1.00284   1.03342
 Alpha virt. eigenvalues --    1.04964   1.06177   1.06539   1.08294   1.08651
 Alpha virt. eigenvalues --    1.12255   1.13986   1.15306   1.21404   1.22359
 Alpha virt. eigenvalues --    1.26553   1.27980   1.32181   1.37178   1.39915
 Alpha virt. eigenvalues --    1.42704   1.46382   1.48433   1.49805   1.52047
 Alpha virt. eigenvalues --    1.52820   1.55118   1.55447   1.56778   1.58337
 Alpha virt. eigenvalues --    1.60509   1.61106   1.62824   1.63523   1.63918
 Alpha virt. eigenvalues --    1.68103   1.72077   1.76863   1.78077   1.79415
 Alpha virt. eigenvalues --    1.80951   1.83595   1.86469   1.86882   1.91170
 Alpha virt. eigenvalues --    1.93920   1.98372   1.99285   2.01076   2.02927
 Alpha virt. eigenvalues --    2.04085   2.08517   2.11187   2.13094   2.15401
 Alpha virt. eigenvalues --    2.16702   2.20162   2.25303   2.27612   2.30854
 Alpha virt. eigenvalues --    2.32440   2.33161   2.34442   2.34985   2.36234
 Alpha virt. eigenvalues --    2.36563   2.41102   2.42729   2.46871   2.48057
 Alpha virt. eigenvalues --    2.50253   2.52902   2.54611   2.57508   2.57925
 Alpha virt. eigenvalues --    2.59661   2.62040   2.66772   2.67605   2.69518
 Alpha virt. eigenvalues --    2.72265   2.77354   2.80155   2.82326   2.84244
 Alpha virt. eigenvalues --    2.87424   2.92870   2.97598   2.99912   3.02185
 Alpha virt. eigenvalues --    3.03913   3.09593   3.09797   3.13679   3.15275
 Alpha virt. eigenvalues --    3.19388   3.22229   3.23832   3.26920   3.30345
 Alpha virt. eigenvalues --    3.32296   3.32870   3.37377   3.38995   3.42016
 Alpha virt. eigenvalues --    3.44347   3.46210   3.49760   3.53828   3.54993
 Alpha virt. eigenvalues --    3.58625   3.60270   3.63344   3.68595   3.76789
 Alpha virt. eigenvalues --    3.81011   3.86597   3.91924   3.96858   4.03862
 Alpha virt. eigenvalues --    4.19004   4.23924   4.25768   4.34349   4.36982
 Alpha virt. eigenvalues --    4.41839   4.46783   4.54864   4.56674   4.79785
 Alpha virt. eigenvalues --    5.15585   5.16929   5.17978   5.18261   5.28235
 Alpha virt. eigenvalues --    5.29185   5.38530   5.41979   5.45381   5.50174
 Alpha virt. eigenvalues --    5.79972   5.86521   6.02991   6.22714   6.37778
 Alpha virt. eigenvalues --    6.41854   6.53431   6.58372   6.60245   6.66379
 Alpha virt. eigenvalues --    6.67707   6.79922   6.82192   6.97335   7.06180
 Alpha virt. eigenvalues --    7.16033   7.22765  11.90796  22.37823  22.39755
 Alpha virt. eigenvalues --   22.45740  43.64298  43.92957
          Condensed to atoms (all electrons):
              1          2          3          4          5          6
     1  H    0.557936   0.412527  -0.036162  -0.027443  -0.027697  -0.007073
     2  C    0.412527   4.924680   0.308748   0.411733   0.406479  -0.031164
     3  C   -0.036162   0.308748   5.061097  -0.037884  -0.038830   0.372693
     4  H   -0.027443   0.411733  -0.037884   0.552389  -0.024104  -0.004324
     5  H   -0.027697   0.406479  -0.038830  -0.024104   0.554892   0.008208
     6  H   -0.007073  -0.031164   0.372693  -0.004324   0.008208   0.566798
     7  Si   0.007926  -0.030417   0.423726  -0.007339  -0.006198  -0.013684
     8  H   -0.007047  -0.032582   0.379642   0.007982  -0.003959  -0.021801
     9  O   -0.000147  -0.005827  -0.038003  -0.000178   0.005439   0.002285
    10  O   -0.000064   0.001567  -0.032203  -0.000010   0.000178   0.002861
    11  H   -0.000157   0.005295  -0.043660   0.002506   0.000259   0.001092
    12  H    0.000001   0.000139  -0.003036   0.000036   0.000003  -0.000003
    13  C    0.000007  -0.000178   0.001926   0.000003   0.000003   0.000085
    14  H    0.000000  -0.000011  -0.000178   0.000000   0.000000  -0.000042
    15  H    0.000001   0.000036  -0.000092   0.000011  -0.000004  -0.000079
    16  H    0.000000   0.000021   0.000613  -0.000003  -0.000003   0.000035
              7          8          9         10         11         12
     1  H    0.007926  -0.007047  -0.000147  -0.000064  -0.000157   0.000001
     2  C   -0.030417  -0.032582  -0.005827   0.001567   0.005295   0.000139
     3  C    0.423726   0.379642  -0.038003  -0.032203  -0.043660  -0.003036
     4  H   -0.007339   0.007982  -0.000178  -0.000010   0.002506   0.000036
     5  H   -0.006198  -0.003959   0.005439   0.000178   0.000259   0.000003
     6  H   -0.013684  -0.021801   0.002285   0.002861   0.001092  -0.000003
     7  Si  11.879077  -0.022170   0.469226   0.463601   0.386284  -0.027920
     8  H   -0.022170   0.584397  -0.001056   0.000831   0.002920   0.001705
     9  O    0.469226  -0.001056   7.847824  -0.032889  -0.015887   0.299193
    10  O    0.463601   0.000831  -0.032889   7.833300  -0.026922  -0.001041
    11  H    0.386284   0.002920  -0.015887  -0.026922   0.743622   0.004228
    12  H   -0.027920   0.001705   0.299193  -0.001041   0.004228   0.406492
    13  C   -0.047666   0.000059  -0.007443   0.258944   0.002050   0.000863
    14  H    0.006962   0.000023   0.000082  -0.040192  -0.000277   0.000023
    15  H   -0.015578   0.000033  -0.000525  -0.043090   0.010161  -0.000056
    16  H   -0.005326  -0.000032   0.006685  -0.043755  -0.002040   0.000306
             13         14         15         16
     1  H    0.000007   0.000000   0.000001   0.000000
     2  C   -0.000178  -0.000011   0.000036   0.000021
     3  C    0.001926  -0.000178  -0.000092   0.000613
     4  H    0.000003   0.000000   0.000011  -0.000003
     5  H    0.000003   0.000000  -0.000004  -0.000003
     6  H    0.000085  -0.000042  -0.000079   0.000035
     7  Si  -0.047666   0.006962  -0.015578  -0.005326
     8  H    0.000059   0.000023   0.000033  -0.000032
     9  O   -0.007443   0.000082  -0.000525   0.006685
    10  O    0.258944  -0.040192  -0.043090  -0.043755
    11  H    0.002050  -0.000277   0.010161  -0.002040
    12  H    0.000863   0.000023  -0.000056   0.000306
    13  C    4.769943   0.402489   0.416823   0.412249
    14  H    0.402489   0.566830  -0.030905  -0.033626
    15  H    0.416823  -0.030905   0.593130  -0.047558
    16  H    0.412249  -0.033626  -0.047558   0.593064
 Mulliken atomic charges:
              1
     1  H    0.127392
     2  C   -0.371045
     3  C   -0.318397
     4  H    0.126623
     5  H    0.125336
     6  H    0.124113
     7  Si   0.539497
     8  H    0.111054
     9  O   -0.528777
    10  O   -0.341117
    11  H   -0.069473
    12  H    0.319068
    13  C   -0.210157
    14  H    0.128823
    15  H    0.117691
    16  H    0.119369
 Sum of Mulliken atomic charges =   0.00000
 Mulliken charges with hydrogens summed into heavy atoms:
              1
     2  C    0.008307
     3  C   -0.083230
     7  Si   0.470023
     9  O   -0.209710
    10  O   -0.341117
    13  C    0.155726
 Sum of Mulliken charges with hydrogens summed into heavy atoms =   0.00000
 Electronic spatial extent (au):  <R**2>=            935.4916
 Charge=              0.0000 electrons
 Dipole moment (field-independent basis, Debye):
    X=              0.1120    Y=             -0.1308    Z=             -1.1010  Tot=              1.1144
 Quadrupole moment (field-independent basis, Debye-Ang):
   XX=            -41.4440   YY=            -47.3557   ZZ=            -43.7333
   XY=              0.4538   XZ=              0.8977   YZ=             -3.9134
 Traceless Quadrupole moment (field-independent basis, Debye-Ang):
   XX=              2.7337   YY=             -3.1781   ZZ=              0.4444
   XY=              0.4538   XZ=              0.8977   YZ=             -3.9134
 Octapole moment (field-independent basis, Debye-Ang**2):
  XXX=             21.1314  YYY=              0.8194  ZZZ=             -8.5861  XYY=              0.9064
  XXY=             -1.0063  XXZ=             -0.7363  XZZ=              2.0415  YZZ=              6.0480
  YYZ=             -7.6723  XYZ=             -0.5401
 Hexadecapole moment (field-independent basis, Debye-Ang**3):
 XXXX=           -882.5334 YYYY=           -240.0012 ZZZZ=           -113.4433 XXXY=             -9.1398
 XXXZ=              1.1314 YYYX=             -4.1487 YYYZ=            -17.4773 ZZZX=             -0.2457
 ZZZY=            -10.3076 XXYY=           -187.9807 XXZZ=           -170.6723 YYZZ=            -50.2281
 XXYZ=             -0.4248 YYXZ=             -1.8784 ZZXY=             -0.3257
 N-N= 3.262140360999D+02 E-N=-1.976441268329D+03  KE= 5.582398930993D+02
 1\1\GINC-TARSUS2\SP\RPBE1PBE\def2TZVP\C3H10O2Si1\RENATO\29-Jun-2018\0\
 \#SP PBE1PBE/Def2TZVP geom=connectivity\\Structure: 83\\0,1\H,0,0.,0.,
 0.\C,0,1.093,0.,0.\C,0,1.655,1.421,0.\H,0,1.41,-0.56,-0.885\H,0,1.424,
 -0.557,0.88\H,0,1.308,1.969,-0.883\Si,0,3.513,1.515,0.035\H,0,1.282,1.
 975,0.868\O,0,4.153,1.026,1.474\O,0,3.886,3.079,-0.298\H,0,4.163,0.617
 ,-0.953\H,0,3.828,1.449,2.27\C,0,5.204,3.555,-0.445\H,0,5.16,4.608,-0.
 733\H,0,5.744,3.005,-1.224\H,0,5.767,3.472,0.49\\Version=EM64L-G09RevC
 .01\State=1-A\HF=-560.0610906\RMSD=6.206e-09\Dipole=-0.1697965,0.31108
 67,0.2581315\Quadrupole=0.2712704,-2.1348436,1.8635732,2.7395383,-1.13
 78202,1.041267\PG=C01 [X(C3H10O2Si1)]\\@


 IF YOU GIVE A BOY AND A PIG EVERYTHING THEY WANT,
 YOU'LL GET A BAD BOY AND A GOOD PIG.
 Job cpu time:  0 days  0 hours  7 minutes 12.5 seconds.
 File lengths (MBytes):  RWF=     40 Int=      0 D2E=      0 Chk=      3 Scr=      1
 Normal termination of Gaussian 09 at Fri Jun 29 15:57:30 2018.
