 Entering Gaussian System, Link 0=g09
 Initial command:
 /usr/local/gaussian09/g09/l1.exe /scratch/renato/Gau-10117.inp -scrdir=/scratch/renato/
 Entering Link 1 = /usr/local/gaussian09/g09/l1.exe PID=     10119.
  
 Copyright (c) 1988,1990,1992,1993,1995,1998,2003,2009,2011,
            Gaussian, Inc.  All Rights Reserved.
  
 This is part of the Gaussian(R) 09 program.  It is based on
 the Gaussian(R) 03 system (copyright 2003, Gaussian, Inc.),
 the Gaussian(R) 98 system (copyright 1998, Gaussian, Inc.),
 the Gaussian(R) 94 system (copyright 1995, Gaussian, Inc.),
 the Gaussian 92(TM) system (copyright 1992, Gaussian, Inc.),
 the Gaussian 90(TM) system (copyright 1990, Gaussian, Inc.),
 the Gaussian 88(TM) system (copyright 1988, Gaussian, Inc.),
 the Gaussian 86(TM) system (copyright 1986, Carnegie Mellon
 University), and the Gaussian 82(TM) system (copyright 1983,
 Carnegie Mellon University). Gaussian is a federally registered
 trademark of Gaussian, Inc.
  
 This software contains proprietary and confidential information,
 including trade secrets, belonging to Gaussian, Inc.
  
 This software is provided under written license and may be
 used, copied, transmitted, or stored only in accord with that
 written license.
  
 The following legend is applicable only to US Government
 contracts under FAR:
  
                    RESTRICTED RIGHTS LEGEND
  
 Use, reproduction and disclosure by the US Government is
 subject to restrictions as set forth in subparagraphs (a)
 and (c) of the Commercial Computer Software - Restricted
 Rights clause in FAR 52.227-19.
  
 Gaussian, Inc.
 340 Quinnipiac St., Bldg. 40, Wallingford CT 06492
  
  
 ---------------------------------------------------------------
 Warning -- This program may not be used in any manner that
 competes with the business of Gaussian, Inc. or will provide
 assistance to any competitor of Gaussian, Inc.  The licensee
 of this program is prohibited from giving any competitor of
 Gaussian, Inc. access to this program.  By using this program,
 the user acknowledges that Gaussian, Inc. is engaged in the
 business of creating and licensing software in the field of
 computational chemistry and represents and warrants to the
 licensee that it is not a competitor of Gaussian, Inc. and that
 it will not use this program in any manner prohibited above.
 ---------------------------------------------------------------
  

 Cite this work as:
 Gaussian 09, Revision C.01,
 M. J. Frisch, G. W. Trucks, H. B. Schlegel, G. E. Scuseria, 
 M. A. Robb, J. R. Cheeseman, G. Scalmani, V. Barone, B. Mennucci, 
 G. A. Petersson, H. Nakatsuji, M. Caricato, X. Li, H. P. Hratchian, 
 A. F. Izmaylov, J. Bloino, G. Zheng, J. L. Sonnenberg, M. Hada, 
 M. Ehara, K. Toyota, R. Fukuda, J. Hasegawa, M. Ishida, T. Nakajima, 
 Y. Honda, O. Kitao, H. Nakai, T. Vreven, J. A. Montgomery, Jr., 
 J. E. Peralta, F. Ogliaro, M. Bearpark, J. J. Heyd, E. Brothers, 
 K. N. Kudin, V. N. Staroverov, T. Keith, R. Kobayashi, J. Normand, 
 K. Raghavachari, A. Rendell, J. C. Burant, S. S. Iyengar, J. Tomasi, 
 M. Cossi, N. Rega, J. M. Millam, M. Klene, J. E. Knox, J. B. Cross, 
 V. Bakken, C. Adamo, J. Jaramillo, R. Gomperts, R. E. Stratmann, 
 O. Yazyev, A. J. Austin, R. Cammi, C. Pomelli, J. W. Ochterski, 
 R. L. Martin, K. Morokuma, V. G. Zakrzewski, G. A. Voth, 
 P. Salvador, J. J. Dannenberg, S. Dapprich, A. D. Daniels, 
 O. Farkas, J. B. Foresman, J. V. Ortiz, J. Cioslowski, 
 and D. J. Fox, Gaussian, Inc., Wallingford CT, 2010.
 
 ******************************************
 Gaussian 09:  EM64L-G09RevC.01 23-Sep-2011
                10-Aug-2018 
 ******************************************
 %nproc=2
 Will use up to    2 processors via shared memory.
 %mem=256MB
 %RWF=bm3.rwf
 %chk=bm3148
 %NoSave
 --------------------------------------
 #SP PBE1PBE/Def2TZVP geom=connectivity
 --------------------------------------
 1/38=1,57=2/1;
 2/12=2,17=6,18=5,40=1/2;
 3/5=44,7=101,11=2,16=1,25=1,30=1,74=-13/1,2,3;
 4//1;
 5/5=2,38=5/2;
 6/7=2,8=2,9=2,10=2,28=1/1;
 99/5=1,9=1/99;
 --------------
 Structure: 148
 --------------
 Charge =  0 Multiplicity = 1
 Symbolic Z-Matrix:
 H                     0.        0.        0. 
 C                     1.093     0.        0. 
 C                     1.655     1.421     0. 
 H                     1.41     -0.56     -0.885 
 H                     1.424    -0.557     0.88 
 H                     1.308     1.969    -0.883 
 Si                    3.513     1.515     0.035 
 H                     1.282     1.975     0.868 
 O                     4.196     0.799    -1.219 
 O                     3.968     0.824     1.454 
 H                     4.029     2.906    -0.04 
 H                     3.957    -0.112    -1.393 
 C                     5.301     0.766     1.905 
 H                     5.308     0.322     2.902 
 H                     5.747     1.766     1.967 
 H                     5.921     0.153     1.244 
 
                          Input orientation:                          
 ---------------------------------------------------------------------
 Center     Atomic      Atomic             Coordinates (Angstroms)
 Number     Number       Type             X           Y           Z
 ---------------------------------------------------------------------
      1          1           0        0.000000    0.000000    0.000000
      2          6           0        1.093000    0.000000    0.000000
      3          6           0        1.655000    1.421000    0.000000
      4          1           0        1.410000   -0.560000   -0.885000
      5          1           0        1.424000   -0.557000    0.880000
      6          1           0        1.308000    1.969000   -0.883000
      7         14           0        3.513000    1.515000    0.035000
      8          1           0        1.282000    1.975000    0.868000
      9          8           0        4.196000    0.799000   -1.219000
     10          8           0        3.968000    0.824000    1.454000
     11          1           0        4.029000    2.906000   -0.040000
     12          1           0        3.957000   -0.112000   -1.393000
     13          6           0        5.301000    0.766000    1.905000
     14          1           0        5.308000    0.322000    2.902000
     15          1           0        5.747000    1.766000    1.967000
     16          1           0        5.921000    0.153000    1.244000
 ---------------------------------------------------------------------
                    Distance matrix (angstroms):
                    1          2          3          4          5
     1  H    0.000000
     2  C    1.093000   0.000000
     3  C    2.181345   1.528098   0.000000
     4  H    1.756395   1.094218   2.183486   0.000000
     5  H    1.764207   1.092799   2.177210   1.765058   0.000000
     6  H    2.523393   2.168611   1.095629   2.531057   3.082580
     7  Si   3.825914   2.855320   1.860706   3.094291   3.061230
     8  H    2.509497   2.165588   1.095203   3.084740   2.536007
     9  O    4.441934   3.428261   2.886092   3.117729   3.732093
    10  O    4.305591   3.325465   2.796515   3.732257   2.951029
    11  H    4.967824   4.131166   2.800482   4.425646   4.429988
    12  H    4.196527   3.186768   3.096731   2.635522   3.432294
    13  C    5.684750   4.682205   4.165497   4.968124   4.222805
    14  H    6.058065   5.127525   4.793101   5.505788   4.466160
    15  H    6.325809   5.352342   4.553304   5.688036   5.026552
    16  H    6.052205   4.988039   4.621051   5.038862   4.567232
                    6          7          8          9         10
     6  H    0.000000
     7  Si   2.431227   0.000000
     8  H    1.751203   2.425459   0.000000
     9  O    3.134061   1.597392   3.772259   0.000000
    10  O    3.721316   1.642579   2.980401   2.682823   0.000000
    11  H    2.998743   1.485517   3.039282   2.420202   2.563295
    12  H    3.407031   2.209853   4.077170   0.957767   2.996936
    13  C    5.016393   2.693482   4.323125   3.313833   1.408423
    14  H    5.747942   3.586776   4.803982   4.294964   2.035757
    15  H    5.279056   2.964183   4.603011   3.673049   2.077348
    16  H    5.394604   3.019137   4.998138   3.075599   2.075705
                   11         12         13         14         15
    11  H    0.000000
    12  H    3.308189   0.000000
    13  C    3.159210   3.667973   0.000000
    14  H    4.119255   4.523337   1.091418   0.000000
    15  H    2.877355   4.245066   1.096704   1.775410   0.000000
    16  H    3.578733   3.298680   1.094116   1.775752   1.776168
                   16
    16  H    0.000000
 Stoichiometry    C3H10O2Si
 Framework group  C1[X(C3H10O2Si)]
 Deg. of freedom    42
 Full point group                 C1      NOp   1
 Largest Abelian subgroup         C1      NOp   1
 Largest concise Abelian subgroup C1      NOp   1
                         Standard orientation:                         
 ---------------------------------------------------------------------
 Center     Atomic      Atomic             Coordinates (Angstroms)
 Number     Number       Type             X           Y           Z
 ---------------------------------------------------------------------
      1          1           0       -3.229611   -1.206058   -0.462816
      2          6           0       -2.234747   -0.786530   -0.632791
      3          6           0       -1.621268   -0.252938    0.661043
      4          1           0       -2.347354    0.002740   -1.382248
      5          1           0       -1.614491   -1.572473   -1.070727
      6          1           0       -2.257956    0.527538    1.092190
      7         14           0        0.090929    0.449892    0.469634
      8          1           0       -1.566997   -1.049815    1.410383
      9          8           0        0.149762    1.675334   -0.553348
     10          8           0        1.034284   -0.801319   -0.022927
     11          1           0        0.629795    1.026310    1.728255
     12          1           0       -0.204103    1.535693   -1.432324
     13          6           0        2.427392   -0.706696   -0.207190
     14          1           0        2.808566   -1.696542   -0.464300
     15          1           0        2.930373   -0.367352    0.706383
     16          1           0        2.678142   -0.013662   -1.015841
 ---------------------------------------------------------------------
 Rotational constants (GHZ):      4.1520779      1.9044976      1.5931158
 Standard basis: def2TZVP (5D, 7F)
 There are   252 symmetry adapted basis functions of A   symmetry.
 Integral buffers will be    131072 words long.
 Raffenetti 2 integral format.
 Two-electron integral symmetry is turned on.
   252 basis functions,   404 primitive gaussians,   282 cartesian basis functions
    29 alpha electrons       29 beta electrons
       nuclear repulsion energy       331.4504223083 Hartrees.
 NAtoms=   16 NActive=   16 NUniq=   16 SFac= 1.00D+00 NAtFMM=   60 NAOKFM=F Big=F
 One-electron integrals computed using PRISM.
   1 Symmetry operations used in ECPInt.
 ECPInt:  NShTT=    5886 NPrTT=   17754 LenC2=    5783 LenP2D=   13928.
 LDataN:  DoStor=T MaxTD1= 6 Len=  172
 NBasis=   252 RedAO= T  NBF=   252
 NBsUse=   252 1.00D-06 NBFU=   252
 Harris functional with IExCor= 1009 diagonalized for initial guess.
 ExpMin= 7.01D-02 ExpMax= 4.48D+04 ExpMxC= 1.53D+03 IAcc=2 IRadAn=         4 AccDes= 0.00D+00
 HarFok:  IExCor= 1009 AccDes= 0.00D+00 IRadAn=         4 IDoV= 1
 ScaDFX=  1.000000  1.000000  1.000000  1.000000
 FoFCou: FMM=F IPFlag=           0 FMFlag=      100000 FMFlg1=           0
         NFxFlg=           0 DoJE=T BraDBF=F KetDBF=T FulRan=T
         Omega=  0.000000  0.000000  1.000000  0.000000  0.000000 ICntrl=     500 IOpCl=  0
         NMat0=    1 NMatS0=    1 NMatT0=    0 NMatD0=    1 NMtDS0=    0 NMtDT0=    0
         I1Cent=           4 NGrid=           0.
 Petite list used in FoFCou.
 Initial guess orbital symmetries:
       Occupied  (A) (A) (A) (A) (A) (A) (A) (A) (A) (A) (A) (A)
                 (A) (A) (A) (A) (A) (A) (A) (A) (A) (A) (A) (A)
                 (A) (A) (A) (A) (A)
       Virtual   (A) (A) (A) (A) (A) (A) (A) (A) (A) (A) (A) (A)
                 (A) (A) (A) (A) (A) (A) (A) (A) (A) (A) (A) (A)
                 (A) (A) (A) (A) (A) (A) (A) (A) (A) (A) (A) (A)
                 (A) (A) (A) (A) (A) (A) (A) (A) (A) (A) (A) (A)
                 (A) (A) (A) (A) (A) (A) (A) (A) (A) (A) (A) (A)
                 (A) (A) (A) (A) (A) (A) (A) (A) (A) (A) (A) (A)
                 (A) (A) (A) (A) (A) (A) (A) (A) (A) (A) (A) (A)
                 (A) (A) (A) (A) (A) (A) (A) (A) (A) (A) (A) (A)
                 (A) (A) (A) (A) (A) (A) (A) (A) (A) (A) (A) (A)
                 (A) (A) (A) (A) (A) (A) (A) (A) (A) (A) (A) (A)
                 (A) (A) (A) (A) (A) (A) (A) (A) (A) (A) (A) (A)
                 (A) (A) (A) (A) (A) (A) (A) (A) (A) (A) (A) (A)
                 (A) (A) (A) (A) (A) (A) (A) (A) (A) (A) (A) (A)
                 (A) (A) (A) (A) (A) (A) (A) (A) (A) (A) (A) (A)
                 (A) (A) (A) (A) (A) (A) (A) (A) (A) (A) (A) (A)
                 (A) (A) (A) (A) (A) (A) (A) (A) (A) (A) (A) (A)
                 (A) (A) (A) (A) (A) (A) (A) (A) (A) (A) (A) (A)
                 (A) (A) (A) (A) (A) (A) (A) (A) (A) (A) (A) (A)
                 (A) (A) (A) (A) (A) (A) (A)
 The electronic state of the initial guess is 1-A.
 Requested convergence on RMS density matrix=1.00D-08 within 128 cycles.
 Requested convergence on MAX density matrix=1.00D-06.
 Requested convergence on             energy=1.00D-06.
 No special actions if energy rises.
 Integral accuracy reduced to 1.0D-05 until final iterations.
 Initial convergence to 1.0D-05 achieved.  Increase integral accuracy.
 SCF Done:  E(RPBE1PBE) =  -560.059668727     A.U. after   12 cycles
             Convg  =    0.8557D-08             -V/T =  2.0031

 **********************************************************************

            Population analysis using the SCF density.

 **********************************************************************

 Orbital symmetries:
       Occupied  (A) (A) (A) (A) (A) (A) (A) (A) (A) (A) (A) (A)
                 (A) (A) (A) (A) (A) (A) (A) (A) (A) (A) (A) (A)
                 (A) (A) (A) (A) (A)
       Virtual   (A) (A) (A) (A) (A) (A) (A) (A) (A) (A) (A) (A)
                 (A) (A) (A) (A) (A) (A) (A) (A) (A) (A) (A) (A)
                 (A) (A) (A) (A) (A) (A) (A) (A) (A) (A) (A) (A)
                 (A) (A) (A) (A) (A) (A) (A) (A) (A) (A) (A) (A)
                 (A) (A) (A) (A) (A) (A) (A) (A) (A) (A) (A) (A)
                 (A) (A) (A) (A) (A) (A) (A) (A) (A) (A) (A) (A)
                 (A) (A) (A) (A) (A) (A) (A) (A) (A) (A) (A) (A)
                 (A) (A) (A) (A) (A) (A) (A) (A) (A) (A) (A) (A)
                 (A) (A) (A) (A) (A) (A) (A) (A) (A) (A) (A) (A)
                 (A) (A) (A) (A) (A) (A) (A) (A) (A) (A) (A) (A)
                 (A) (A) (A) (A) (A) (A) (A) (A) (A) (A) (A) (A)
                 (A) (A) (A) (A) (A) (A) (A) (A) (A) (A) (A) (A)
                 (A) (A) (A) (A) (A) (A) (A) (A) (A) (A) (A) (A)
                 (A) (A) (A) (A) (A) (A) (A) (A) (A) (A) (A) (A)
                 (A) (A) (A) (A) (A) (A) (A) (A) (A) (A) (A) (A)
                 (A) (A) (A) (A) (A) (A) (A) (A) (A) (A) (A) (A)
                 (A) (A) (A) (A) (A) (A) (A) (A) (A) (A) (A) (A)
                 (A) (A) (A) (A) (A) (A) (A) (A) (A) (A) (A) (A)
                 (A) (A) (A) (A) (A) (A) (A)
 The electronic state is 1-A.
 Alpha  occ. eigenvalues --  -66.24721 -19.20536 -19.19772 -10.26363 -10.21685
 Alpha  occ. eigenvalues --  -10.20650  -5.32532  -3.66061  -3.65942  -3.65795
 Alpha  occ. eigenvalues --   -1.04933  -1.02861  -0.78099  -0.70405  -0.63967
 Alpha  occ. eigenvalues --   -0.57439  -0.51309  -0.46758  -0.46551  -0.45987
 Alpha  occ. eigenvalues --   -0.43496  -0.40775  -0.39740  -0.37193  -0.37014
 Alpha  occ. eigenvalues --   -0.35868  -0.31796  -0.30317  -0.29490
 Alpha virt. eigenvalues --    0.02272   0.05714   0.06147   0.08106   0.09012
 Alpha virt. eigenvalues --    0.10259   0.10981   0.11579   0.12365   0.13522
 Alpha virt. eigenvalues --    0.14325   0.15293   0.16266   0.16770   0.19396
 Alpha virt. eigenvalues --    0.21385   0.22156   0.23642   0.24683   0.25024
 Alpha virt. eigenvalues --    0.26648   0.28546   0.29310   0.29714   0.31607
 Alpha virt. eigenvalues --    0.33086   0.36633   0.39253   0.40234   0.40814
 Alpha virt. eigenvalues --    0.41999   0.42601   0.44222   0.45191   0.45792
 Alpha virt. eigenvalues --    0.46332   0.47519   0.47925   0.50103   0.50667
 Alpha virt. eigenvalues --    0.51682   0.53402   0.55335   0.57015   0.59939
 Alpha virt. eigenvalues --    0.60748   0.63106   0.65776   0.66453   0.67840
 Alpha virt. eigenvalues --    0.74106   0.74802   0.75503   0.78322   0.81426
 Alpha virt. eigenvalues --    0.83444   0.83975   0.86392   0.88229   0.91974
 Alpha virt. eigenvalues --    0.93227   0.95660   0.97223   0.99753   1.00961
 Alpha virt. eigenvalues --    1.04461   1.07166   1.09093   1.09700   1.11939
 Alpha virt. eigenvalues --    1.12554   1.12867   1.15760   1.19478   1.21420
 Alpha virt. eigenvalues --    1.25218   1.29791   1.32580   1.36885   1.41431
 Alpha virt. eigenvalues --    1.42341   1.46536   1.48501   1.49766   1.52686
 Alpha virt. eigenvalues --    1.53157   1.54668   1.55189   1.56475   1.57889
 Alpha virt. eigenvalues --    1.59436   1.62793   1.63867   1.64511   1.66240
 Alpha virt. eigenvalues --    1.68243   1.72288   1.76031   1.78831   1.79706
 Alpha virt. eigenvalues --    1.80767   1.83287   1.86113   1.89114   1.92266
 Alpha virt. eigenvalues --    1.95196   1.96060   2.00018   2.02515   2.04699
 Alpha virt. eigenvalues --    2.05870   2.08663   2.11671   2.12453   2.15434
 Alpha virt. eigenvalues --    2.17702   2.19212   2.26591   2.29500   2.30400
 Alpha virt. eigenvalues --    2.33200   2.33360   2.34935   2.35549   2.35942
 Alpha virt. eigenvalues --    2.36604   2.40646   2.44659   2.47818   2.49715
 Alpha virt. eigenvalues --    2.51222   2.52120   2.54923   2.56244   2.58398
 Alpha virt. eigenvalues --    2.59805   2.61455   2.65648   2.67381   2.71270
 Alpha virt. eigenvalues --    2.73246   2.77845   2.80654   2.84065   2.85487
 Alpha virt. eigenvalues --    2.87564   2.93700   2.95097   3.00069   3.02984
 Alpha virt. eigenvalues --    3.07696   3.09284   3.11255   3.11832   3.15394
 Alpha virt. eigenvalues --    3.21361   3.22543   3.23541   3.28148   3.30138
 Alpha virt. eigenvalues --    3.32290   3.32891   3.37617   3.40493   3.44620
 Alpha virt. eigenvalues --    3.45376   3.46275   3.49801   3.53618   3.54429
 Alpha virt. eigenvalues --    3.58600   3.62401   3.63197   3.65324   3.76919
 Alpha virt. eigenvalues --    3.81463   3.90109   3.93295   3.96202   4.03278
 Alpha virt. eigenvalues --    4.19287   4.24278   4.25340   4.34333   4.37063
 Alpha virt. eigenvalues --    4.41754   4.47123   4.53569   4.57373   4.78834
 Alpha virt. eigenvalues --    5.15238   5.16600   5.18207   5.20004   5.29502
 Alpha virt. eigenvalues --    5.31271   5.39463   5.41970   5.45743   5.49833
 Alpha virt. eigenvalues --    5.80203   5.86881   6.03833   6.23748   6.42375
 Alpha virt. eigenvalues --    6.43897   6.54817   6.59658   6.61064   6.67859
 Alpha virt. eigenvalues --    6.73095   6.80588   6.82402   6.96702   7.06781
 Alpha virt. eigenvalues --    7.16416   7.23408  11.99621  22.37137  22.41074
 Alpha virt. eigenvalues --   22.45589  43.65064  43.94891
          Condensed to atoms (all electrons):
              1          2          3          4          5          6
     1  H    0.550653   0.408661  -0.033308  -0.025320  -0.024470  -0.006861
     2  C    0.408661   4.940943   0.312194   0.401255   0.413201  -0.030036
     3  C   -0.033308   0.312194   5.043892  -0.045037  -0.040073   0.386787
     4  H   -0.025320   0.401255  -0.045037   0.588431  -0.028075  -0.004943
     5  H   -0.024470   0.413201  -0.040073  -0.028075   0.533302   0.007805
     6  H   -0.006861  -0.030036   0.386787  -0.004943   0.007805   0.579776
     7  Si   0.007560  -0.019013   0.423761  -0.006360  -0.007912  -0.028165
     8  H   -0.006976  -0.027486   0.369524   0.008911  -0.004093  -0.026129
     9  O   -0.000009  -0.002758  -0.040187   0.004300  -0.000412  -0.001097
    10  O    0.000011  -0.004912  -0.031592   0.000443   0.007537   0.001297
    11  H   -0.000114   0.001882  -0.035735   0.000209   0.000416   0.001447
    12  H   -0.000102   0.000685  -0.002418   0.002291   0.000045   0.000080
    13  C    0.000009  -0.000063   0.002095   0.000089  -0.000085  -0.000128
    14  H   -0.000004   0.000223  -0.000425  -0.000002  -0.000163   0.000000
    15  H    0.000000  -0.000038  -0.000063  -0.000001   0.000083   0.000006
    16  H    0.000001  -0.000139   0.000844  -0.000012   0.000016   0.000014
              7          8          9         10         11         12
     1  H    0.007560  -0.006976  -0.000009   0.000011  -0.000114  -0.000102
     2  C   -0.019013  -0.027486  -0.002758  -0.004912   0.001882   0.000685
     3  C    0.423761   0.369524  -0.040187  -0.031592  -0.035735  -0.002418
     4  H   -0.006360   0.008911   0.004300   0.000443   0.000209   0.002291
     5  H   -0.007912  -0.004093  -0.000412   0.007537   0.000416   0.000045
     6  H   -0.028165  -0.026129  -0.001097   0.001297   0.001447   0.000080
     7  Si  11.882546  -0.014305   0.486424   0.451770   0.390910  -0.029855
     8  H   -0.014305   0.578819   0.002029   0.001844   0.000841  -0.000014
     9  O    0.486424   0.002029   7.803117  -0.037859  -0.016927   0.303175
    10  O    0.451770   0.001844  -0.037859   7.847676  -0.026754  -0.001326
    11  H    0.390910   0.000841  -0.016927  -0.026754   0.737504   0.004601
    12  H   -0.029855  -0.000014   0.303175  -0.001326   0.004601   0.400783
    13  C   -0.049253   0.000069  -0.007002   0.262294   0.002436   0.000805
    14  H    0.007540   0.000001   0.000075  -0.041164  -0.000234   0.000021
    15  H   -0.017714  -0.000018  -0.000519  -0.042784   0.010374  -0.000043
    16  H   -0.004970  -0.000018   0.006667  -0.044475  -0.002039   0.000400
             13         14         15         16
     1  H    0.000009  -0.000004   0.000000   0.000001
     2  C   -0.000063   0.000223  -0.000038  -0.000139
     3  C    0.002095  -0.000425  -0.000063   0.000844
     4  H    0.000089  -0.000002  -0.000001  -0.000012
     5  H   -0.000085  -0.000163   0.000083   0.000016
     6  H   -0.000128   0.000000   0.000006   0.000014
     7  Si  -0.049253   0.007540  -0.017714  -0.004970
     8  H    0.000069   0.000001  -0.000018  -0.000018
     9  O   -0.007002   0.000075  -0.000519   0.006667
    10  O    0.262294  -0.041164  -0.042784  -0.044475
    11  H    0.002436  -0.000234   0.010374  -0.002039
    12  H    0.000805   0.000021  -0.000043   0.000400
    13  C    4.766543   0.403129   0.418106   0.411920
    14  H    0.403129   0.566932  -0.030395  -0.034053
    15  H    0.418106  -0.030395   0.593748  -0.048238
    16  H    0.411920  -0.034053  -0.048238   0.596474
 Mulliken atomic charges:
              1
     1  H    0.130267
     2  C   -0.394600
     3  C   -0.310260
     4  H    0.103822
     5  H    0.142880
     6  H    0.120150
     7  Si   0.527038
     8  H    0.117002
     9  O   -0.499017
    10  O   -0.342004
    11  H   -0.068816
    12  H    0.320873
    13  C   -0.210963
    14  H    0.128522
    15  H    0.117497
    16  H    0.117610
 Sum of Mulliken atomic charges =   0.00000
 Mulliken charges with hydrogens summed into heavy atoms:
              1
     2  C   -0.017630
     3  C   -0.073108
     7  Si   0.458222
     9  O   -0.178144
    10  O   -0.342004
    13  C    0.152665
 Sum of Mulliken charges with hydrogens summed into heavy atoms =   0.00000
 Electronic spatial extent (au):  <R**2>=            861.2157
 Charge=              0.0000 electrons
 Dipole moment (field-independent basis, Debye):
    X=             -0.2775    Y=             -0.4310    Z=             -1.0171  Tot=              1.1390
 Quadrupole moment (field-independent basis, Debye-Ang):
   XX=            -41.3169   YY=            -48.9842   ZZ=            -42.8675
   XY=             -1.6066   XZ=             -0.1889   YZ=             -1.7494
 Traceless Quadrupole moment (field-independent basis, Debye-Ang):
   XX=              3.0726   YY=             -4.5947   ZZ=              1.5220
   XY=             -1.6066   XZ=             -0.1889   YZ=             -1.7494
 Octapole moment (field-independent basis, Debye-Ang**2):
  XXX=             14.4629  YYY=             -5.4836  ZZZ=            -11.2013  XYY=             -0.6664
  XXY=             -1.8858  XXZ=             -1.2840  XZZ=              0.5806  YZZ=              4.7677
  YYZ=             -3.1992  XYZ=              1.7584
 Hexadecapole moment (field-independent basis, Debye-Ang**3):
 XXXX=           -707.3439 YYYY=           -283.8960 ZZZZ=           -163.9019 XXXY=            -12.2862
 XXXZ=             -6.0839 YYYX=            -11.8001 YYYZ=             -6.4231 ZZZX=             -2.5402
 ZZZY=            -20.1121 XXYY=           -161.4899 XXZZ=           -151.1859 YYZZ=            -65.6831
 XXYZ=             -1.3017 YYXZ=             -1.6056 ZZXY=             -4.8865
 N-N= 3.314504223083D+02 E-N=-1.987004175846D+03  KE= 5.583546272829D+02
 1\1\GINC-TARSUS2\SP\RPBE1PBE\def2TZVP\C3H10O2Si1\RENATO\10-Aug-2018\0\
 \#SP PBE1PBE/Def2TZVP geom=connectivity\\Structure: 148\\0,1\H,0,0.,0.
 ,0.\C,0,1.093,0.,0.\C,0,1.655,1.421,0.\H,0,1.41,-0.56,-0.885\H,0,1.424
 ,-0.557,0.88\H,0,1.308,1.969,-0.883\Si,0,3.513,1.515,0.035\H,0,1.282,1
 .975,0.868\O,0,4.196,0.799,-1.219\O,0,3.968,0.824,1.454\H,0,4.029,2.90
 6,-0.04\H,0,3.957,-0.112,-1.393\C,0,5.301,0.766,1.905\H,0,5.308,0.322,
 2.902\H,0,5.747,1.766,1.967\H,0,5.921,0.153,1.244\\Version=EM64L-G09Re
 vC.01\State=1-A\HF=-560.0596687\RMSD=8.557e-09\Dipole=-0.1022219,-0.43
 47388,0.0369137\Quadrupole=0.7771462,0.2864024,-1.0635486,-1.1540297,2
 .496109,1.9368497\PG=C01 [X(C3H10O2Si1)]\\@


 Sometimes the fool who rushes in gets the job done.
                                    -- Al Bernstein
 Job cpu time:  0 days  0 hours 12 minutes 46.7 seconds.
 File lengths (MBytes):  RWF=     40 Int=      0 D2E=      0 Chk=      3 Scr=      1
 Normal termination of Gaussian 09 at Fri Aug 10 02:45:11 2018.
