 Entering Gaussian System, Link 0=g09
 Initial command:
 /usr/local/gaussian09/g09/l1.exe /scratch/renato/Gau-9357.inp -scrdir=/scratch/renato/
 Entering Link 1 = /usr/local/gaussian09/g09/l1.exe PID=      9359.
  
 Copyright (c) 1988,1990,1992,1993,1995,1998,2003,2009,2011,
            Gaussian, Inc.  All Rights Reserved.
  
 This is part of the Gaussian(R) 09 program.  It is based on
 the Gaussian(R) 03 system (copyright 2003, Gaussian, Inc.),
 the Gaussian(R) 98 system (copyright 1998, Gaussian, Inc.),
 the Gaussian(R) 94 system (copyright 1995, Gaussian, Inc.),
 the Gaussian 92(TM) system (copyright 1992, Gaussian, Inc.),
 the Gaussian 90(TM) system (copyright 1990, Gaussian, Inc.),
 the Gaussian 88(TM) system (copyright 1988, Gaussian, Inc.),
 the Gaussian 86(TM) system (copyright 1986, Carnegie Mellon
 University), and the Gaussian 82(TM) system (copyright 1983,
 Carnegie Mellon University). Gaussian is a federally registered
 trademark of Gaussian, Inc.
  
 This software contains proprietary and confidential information,
 including trade secrets, belonging to Gaussian, Inc.
  
 This software is provided under written license and may be
 used, copied, transmitted, or stored only in accord with that
 written license.
  
 The following legend is applicable only to US Government
 contracts under FAR:
  
                    RESTRICTED RIGHTS LEGEND
  
 Use, reproduction and disclosure by the US Government is
 subject to restrictions as set forth in subparagraphs (a)
 and (c) of the Commercial Computer Software - Restricted
 Rights clause in FAR 52.227-19.
  
 Gaussian, Inc.
 340 Quinnipiac St., Bldg. 40, Wallingford CT 06492
  
  
 ---------------------------------------------------------------
 Warning -- This program may not be used in any manner that
 competes with the business of Gaussian, Inc. or will provide
 assistance to any competitor of Gaussian, Inc.  The licensee
 of this program is prohibited from giving any competitor of
 Gaussian, Inc. access to this program.  By using this program,
 the user acknowledges that Gaussian, Inc. is engaged in the
 business of creating and licensing software in the field of
 computational chemistry and represents and warrants to the
 licensee that it is not a competitor of Gaussian, Inc. and that
 it will not use this program in any manner prohibited above.
 ---------------------------------------------------------------
  

 Cite this work as:
 Gaussian 09, Revision C.01,
 M. J. Frisch, G. W. Trucks, H. B. Schlegel, G. E. Scuseria, 
 M. A. Robb, J. R. Cheeseman, G. Scalmani, V. Barone, B. Mennucci, 
 G. A. Petersson, H. Nakatsuji, M. Caricato, X. Li, H. P. Hratchian, 
 A. F. Izmaylov, J. Bloino, G. Zheng, J. L. Sonnenberg, M. Hada, 
 M. Ehara, K. Toyota, R. Fukuda, J. Hasegawa, M. Ishida, T. Nakajima, 
 Y. Honda, O. Kitao, H. Nakai, T. Vreven, J. A. Montgomery, Jr., 
 J. E. Peralta, F. Ogliaro, M. Bearpark, J. J. Heyd, E. Brothers, 
 K. N. Kudin, V. N. Staroverov, T. Keith, R. Kobayashi, J. Normand, 
 K. Raghavachari, A. Rendell, J. C. Burant, S. S. Iyengar, J. Tomasi, 
 M. Cossi, N. Rega, J. M. Millam, M. Klene, J. E. Knox, J. B. Cross, 
 V. Bakken, C. Adamo, J. Jaramillo, R. Gomperts, R. E. Stratmann, 
 O. Yazyev, A. J. Austin, R. Cammi, C. Pomelli, J. W. Ochterski, 
 R. L. Martin, K. Morokuma, V. G. Zakrzewski, G. A. Voth, 
 P. Salvador, J. J. Dannenberg, S. Dapprich, A. D. Daniels, 
 O. Farkas, J. B. Foresman, J. V. Ortiz, J. Cioslowski, 
 and D. J. Fox, Gaussian, Inc., Wallingford CT, 2010.
 
 ******************************************
 Gaussian 09:  EM64L-G09RevC.01 23-Sep-2011
                10-Aug-2018 
 ******************************************
 %nproc=2
 Will use up to    2 processors via shared memory.
 %mem=256MB
 %RWF=bm3.rwf
 %chk=bm3138
 %NoSave
 --------------------------------------
 #SP PBE1PBE/Def2TZVP geom=connectivity
 --------------------------------------
 1/38=1,57=2/1;
 2/12=2,17=6,18=5,40=1/2;
 3/5=44,7=101,11=2,16=1,25=1,30=1,74=-13/1,2,3;
 4//1;
 5/5=2,38=5/2;
 6/7=2,8=2,9=2,10=2,28=1/1;
 99/5=1,9=1/99;
 --------------
 Structure: 138
 --------------
 Charge =  0 Multiplicity = 1
 Symbolic Z-Matrix:
 H                     0.        0.        0. 
 C                     1.093     0.        0. 
 C                     1.655     1.421     0. 
 H                     1.41     -0.56     -0.885 
 H                     1.424    -0.557     0.88 
 H                     1.308     1.969    -0.883 
 Si                    3.513     1.515     0.035 
 H                     1.282     1.975     0.868 
 O                     4.188     0.808    -1.204 
 O                     3.968     0.824     1.454 
 H                     4.029     2.906    -0.04 
 H                     3.948    -0.103    -1.378 
 C                     5.301     0.766     1.905 
 H                     5.308     0.322     2.902 
 H                     5.747     1.766     1.967 
 H                     5.921     0.153     1.244 
 
                          Input orientation:                          
 ---------------------------------------------------------------------
 Center     Atomic      Atomic             Coordinates (Angstroms)
 Number     Number       Type             X           Y           Z
 ---------------------------------------------------------------------
      1          1           0        0.000000    0.000000    0.000000
      2          6           0        1.093000    0.000000    0.000000
      3          6           0        1.655000    1.421000    0.000000
      4          1           0        1.410000   -0.560000   -0.885000
      5          1           0        1.424000   -0.557000    0.880000
      6          1           0        1.308000    1.969000   -0.883000
      7         14           0        3.513000    1.515000    0.035000
      8          1           0        1.282000    1.975000    0.868000
      9          8           0        4.188000    0.808000   -1.204000
     10          8           0        3.968000    0.824000    1.454000
     11          1           0        4.029000    2.906000   -0.040000
     12          1           0        3.948000   -0.103000   -1.378000
     13          6           0        5.301000    0.766000    1.905000
     14          1           0        5.308000    0.322000    2.902000
     15          1           0        5.747000    1.766000    1.967000
     16          1           0        5.921000    0.153000    1.244000
 ---------------------------------------------------------------------
                    Distance matrix (angstroms):
                    1          2          3          4          5
     1  H    0.000000
     2  C    1.093000   0.000000
     3  C    2.181345   1.528098   0.000000
     4  H    1.756395   1.094218   2.183486   0.000000
     5  H    1.764207   1.092799   2.177210   1.765058   0.000000
     6  H    2.523393   2.168611   1.095629   2.531057   3.082580
     7  Si   3.825914   2.855320   1.860706   3.094291   3.061230
     8  H    2.509497   2.165588   1.095203   3.084740   2.536007
     9  O    4.431910   3.417822   2.870797   3.112952   3.721018
    10  O    4.305591   3.325465   2.796515   3.732257   2.951029
    11  H    4.967824   4.131166   2.800482   4.425646   4.429988
    12  H    4.182846   3.171832   3.078849   2.625517   3.416907
    13  C    5.684750   4.682205   4.165497   4.968124   4.222805
    14  H    6.058065   5.127525   4.793101   5.505788   4.466160
    15  H    6.325809   5.352342   4.553304   5.688036   5.026552
    16  H    6.052205   4.988039   4.621051   5.038862   4.567232
                    6          7          8          9         10
     6  H    0.000000
     7  Si   2.431227   0.000000
     8  H    1.751203   2.425459   0.000000
     9  O    3.121756   1.578162   3.754985   0.000000
    10  O    3.721316   1.642579   2.980401   2.667137   0.000000
    11  H    2.998743   1.485517   3.039282   2.404533   2.563295
    12  H    3.392316   2.191739   4.058344   0.958017   2.979925
    13  C    5.016393   2.693482   4.323125   3.302486   1.408423
    14  H    5.747942   3.586776   4.803982   4.283670   2.035757
    15  H    5.279056   2.964183   4.603011   3.661077   2.077348
    16  H    5.394604   3.019137   4.998138   3.070019   2.075705
                   11         12         13         14         15
    11  H    0.000000
    12  H    3.294068   0.000000
    13  C    3.159210   3.655661   0.000000
    14  H    4.119255   4.510945   1.091418   0.000000
    15  H    2.877355   4.233035   1.096704   1.775410   0.000000
    16  H    3.578733   3.291375   1.094116   1.775752   1.776168
                   16
    16  H    0.000000
 Stoichiometry    C3H10O2Si
 Framework group  C1[X(C3H10O2Si)]
 Deg. of freedom    42
 Full point group                 C1      NOp   1
 Largest Abelian subgroup         C1      NOp   1
 Largest concise Abelian subgroup C1      NOp   1
                         Standard orientation:                         
 ---------------------------------------------------------------------
 Center     Atomic      Atomic             Coordinates (Angstroms)
 Number     Number       Type             X           Y           Z
 ---------------------------------------------------------------------
      1          1           0       -3.229274   -1.209646   -0.451080
      2          6           0       -2.234542   -0.791754   -0.625790
      3          6           0       -1.621013   -0.243854    0.662027
      4          1           0       -2.347458   -0.010776   -1.383838
      5          1           0       -1.614148   -1.582293   -1.055174
      6          1           0       -2.257838    0.541140    1.084685
      7         14           0        0.090977    0.457271    0.462673
      8          1           0       -1.566430   -1.032454    1.420050
      9          8           0        0.148837    1.657083   -0.560899
     10          8           0        1.034581   -0.799025   -0.016281
     11          1           0        0.629877    1.047589    1.714820
     12          1           0       -0.206029    1.507342   -1.438079
     13          6           0        2.427638   -0.706074   -0.201774
     14          1           0        2.809028   -1.698582   -0.448073
     15          1           0        2.930664   -0.356607    0.707950
     16          1           0        2.678094   -0.021882   -1.018011
 ---------------------------------------------------------------------
 Rotational constants (GHZ):      4.1888761      1.9062152      1.5973066
 Standard basis: def2TZVP (5D, 7F)
 There are   252 symmetry adapted basis functions of A   symmetry.
 Integral buffers will be    131072 words long.
 Raffenetti 2 integral format.
 Two-electron integral symmetry is turned on.
   252 basis functions,   404 primitive gaussians,   282 cartesian basis functions
    29 alpha electrons       29 beta electrons
       nuclear repulsion energy       332.1640366976 Hartrees.
 NAtoms=   16 NActive=   16 NUniq=   16 SFac= 1.00D+00 NAtFMM=   60 NAOKFM=F Big=F
 One-electron integrals computed using PRISM.
   1 Symmetry operations used in ECPInt.
 ECPInt:  NShTT=    5886 NPrTT=   17754 LenC2=    5783 LenP2D=   13934.
 LDataN:  DoStor=T MaxTD1= 6 Len=  172
 NBasis=   252 RedAO= T  NBF=   252
 NBsUse=   252 1.00D-06 NBFU=   252
 Harris functional with IExCor= 1009 diagonalized for initial guess.
 ExpMin= 7.01D-02 ExpMax= 4.48D+04 ExpMxC= 1.53D+03 IAcc=2 IRadAn=         4 AccDes= 0.00D+00
 HarFok:  IExCor= 1009 AccDes= 0.00D+00 IRadAn=         4 IDoV= 1
 ScaDFX=  1.000000  1.000000  1.000000  1.000000
 FoFCou: FMM=F IPFlag=           0 FMFlag=      100000 FMFlg1=           0
         NFxFlg=           0 DoJE=T BraDBF=F KetDBF=T FulRan=T
         Omega=  0.000000  0.000000  1.000000  0.000000  0.000000 ICntrl=     500 IOpCl=  0
         NMat0=    1 NMatS0=    1 NMatT0=    0 NMatD0=    1 NMtDS0=    0 NMtDT0=    0
         I1Cent=           4 NGrid=           0.
 Petite list used in FoFCou.
 Initial guess orbital symmetries:
       Occupied  (A) (A) (A) (A) (A) (A) (A) (A) (A) (A) (A) (A)
                 (A) (A) (A) (A) (A) (A) (A) (A) (A) (A) (A) (A)
                 (A) (A) (A) (A) (A)
       Virtual   (A) (A) (A) (A) (A) (A) (A) (A) (A) (A) (A) (A)
                 (A) (A) (A) (A) (A) (A) (A) (A) (A) (A) (A) (A)
                 (A) (A) (A) (A) (A) (A) (A) (A) (A) (A) (A) (A)
                 (A) (A) (A) (A) (A) (A) (A) (A) (A) (A) (A) (A)
                 (A) (A) (A) (A) (A) (A) (A) (A) (A) (A) (A) (A)
                 (A) (A) (A) (A) (A) (A) (A) (A) (A) (A) (A) (A)
                 (A) (A) (A) (A) (A) (A) (A) (A) (A) (A) (A) (A)
                 (A) (A) (A) (A) (A) (A) (A) (A) (A) (A) (A) (A)
                 (A) (A) (A) (A) (A) (A) (A) (A) (A) (A) (A) (A)
                 (A) (A) (A) (A) (A) (A) (A) (A) (A) (A) (A) (A)
                 (A) (A) (A) (A) (A) (A) (A) (A) (A) (A) (A) (A)
                 (A) (A) (A) (A) (A) (A) (A) (A) (A) (A) (A) (A)
                 (A) (A) (A) (A) (A) (A) (A) (A) (A) (A) (A) (A)
                 (A) (A) (A) (A) (A) (A) (A) (A) (A) (A) (A) (A)
                 (A) (A) (A) (A) (A) (A) (A) (A) (A) (A) (A) (A)
                 (A) (A) (A) (A) (A) (A) (A) (A) (A) (A) (A) (A)
                 (A) (A) (A) (A) (A) (A) (A) (A) (A) (A) (A) (A)
                 (A) (A) (A) (A) (A) (A) (A) (A) (A) (A) (A) (A)
                 (A) (A) (A) (A) (A) (A) (A)
 The electronic state of the initial guess is 1-A.
 Requested convergence on RMS density matrix=1.00D-08 within 128 cycles.
 Requested convergence on MAX density matrix=1.00D-06.
 Requested convergence on             energy=1.00D-06.
 No special actions if energy rises.
 Integral accuracy reduced to 1.0D-05 until final iterations.
 Initial convergence to 1.0D-05 achieved.  Increase integral accuracy.
 SCF Done:  E(RPBE1PBE) =  -560.058074650     A.U. after   12 cycles
             Convg  =    0.8613D-08             -V/T =  2.0030

 **********************************************************************

            Population analysis using the SCF density.

 **********************************************************************

 Orbital symmetries:
       Occupied  (A) (A) (A) (A) (A) (A) (A) (A) (A) (A) (A) (A)
                 (A) (A) (A) (A) (A) (A) (A) (A) (A) (A) (A) (A)
                 (A) (A) (A) (A) (A)
       Virtual   (A) (A) (A) (A) (A) (A) (A) (A) (A) (A) (A) (A)
                 (A) (A) (A) (A) (A) (A) (A) (A) (A) (A) (A) (A)
                 (A) (A) (A) (A) (A) (A) (A) (A) (A) (A) (A) (A)
                 (A) (A) (A) (A) (A) (A) (A) (A) (A) (A) (A) (A)
                 (A) (A) (A) (A) (A) (A) (A) (A) (A) (A) (A) (A)
                 (A) (A) (A) (A) (A) (A) (A) (A) (A) (A) (A) (A)
                 (A) (A) (A) (A) (A) (A) (A) (A) (A) (A) (A) (A)
                 (A) (A) (A) (A) (A) (A) (A) (A) (A) (A) (A) (A)
                 (A) (A) (A) (A) (A) (A) (A) (A) (A) (A) (A) (A)
                 (A) (A) (A) (A) (A) (A) (A) (A) (A) (A) (A) (A)
                 (A) (A) (A) (A) (A) (A) (A) (A) (A) (A) (A) (A)
                 (A) (A) (A) (A) (A) (A) (A) (A) (A) (A) (A) (A)
                 (A) (A) (A) (A) (A) (A) (A) (A) (A) (A) (A) (A)
                 (A) (A) (A) (A) (A) (A) (A) (A) (A) (A) (A) (A)
                 (A) (A) (A) (A) (A) (A) (A) (A) (A) (A) (A) (A)
                 (A) (A) (A) (A) (A) (A) (A) (A) (A) (A) (A) (A)
                 (A) (A) (A) (A) (A) (A) (A) (A) (A) (A) (A) (A)
                 (A) (A) (A) (A) (A) (A) (A) (A) (A) (A) (A) (A)
                 (A) (A) (A) (A) (A) (A) (A)
 The electronic state is 1-A.
 Alpha  occ. eigenvalues --  -66.24459 -19.20639 -19.19681 -10.26331 -10.21670
 Alpha  occ. eigenvalues --  -10.20571  -5.32336  -3.65868  -3.65743  -3.65594
 Alpha  occ. eigenvalues --   -1.05260  -1.02953  -0.78060  -0.70363  -0.63938
 Alpha  occ. eigenvalues --   -0.57729  -0.51339  -0.46731  -0.46529  -0.45996
 Alpha  occ. eigenvalues --   -0.43474  -0.40718  -0.40001  -0.37388  -0.37028
 Alpha  occ. eigenvalues --   -0.35885  -0.31753  -0.30268  -0.29413
 Alpha virt. eigenvalues --    0.02250   0.05772   0.06186   0.08140   0.09026
 Alpha virt. eigenvalues --    0.10287   0.11022   0.11635   0.12384   0.13528
 Alpha virt. eigenvalues --    0.14428   0.15312   0.16330   0.16852   0.19433
 Alpha virt. eigenvalues --    0.21408   0.22192   0.23693   0.24708   0.25040
 Alpha virt. eigenvalues --    0.26644   0.28600   0.29291   0.29865   0.31725
 Alpha virt. eigenvalues --    0.33176   0.36625   0.39225   0.40308   0.40855
 Alpha virt. eigenvalues --    0.42024   0.42627   0.44249   0.45181   0.45852
 Alpha virt. eigenvalues --    0.46370   0.47539   0.47938   0.50139   0.50715
 Alpha virt. eigenvalues --    0.51858   0.53423   0.55335   0.57059   0.59882
 Alpha virt. eigenvalues --    0.60746   0.63157   0.65820   0.66622   0.67801
 Alpha virt. eigenvalues --    0.74148   0.74936   0.75607   0.78438   0.81599
 Alpha virt. eigenvalues --    0.83570   0.84017   0.86402   0.88303   0.92001
 Alpha virt. eigenvalues --    0.93285   0.95694   0.97342   0.99840   1.01021
 Alpha virt. eigenvalues --    1.04542   1.07222   1.09237   1.10053   1.11908
 Alpha virt. eigenvalues --    1.12533   1.13288   1.15809   1.19638   1.21530
 Alpha virt. eigenvalues --    1.25326   1.30139   1.32687   1.37012   1.41536
 Alpha virt. eigenvalues --    1.42442   1.46586   1.48734   1.49854   1.52748
 Alpha virt. eigenvalues --    1.53201   1.54737   1.55213   1.56512   1.57931
 Alpha virt. eigenvalues --    1.59453   1.62859   1.63969   1.64728   1.66352
 Alpha virt. eigenvalues --    1.68286   1.72441   1.76193   1.79221   1.79923
 Alpha virt. eigenvalues --    1.80824   1.83361   1.86139   1.89230   1.92441
 Alpha virt. eigenvalues --    1.95257   1.96156   2.00111   2.02777   2.04997
 Alpha virt. eigenvalues --    2.06040   2.08777   2.12017   2.12590   2.15564
 Alpha virt. eigenvalues --    2.17800   2.19434   2.26538   2.29652   2.30486
 Alpha virt. eigenvalues --    2.33304   2.33491   2.35087   2.35738   2.36055
 Alpha virt. eigenvalues --    2.36775   2.40732   2.44924   2.47923   2.49901
 Alpha virt. eigenvalues --    2.51289   2.52238   2.54980   2.56284   2.58436
 Alpha virt. eigenvalues --    2.59887   2.61497   2.65752   2.67507   2.71359
 Alpha virt. eigenvalues --    2.73358   2.78042   2.80706   2.84376   2.85708
 Alpha virt. eigenvalues --    2.88005   2.93859   2.95361   3.00106   3.03354
 Alpha virt. eigenvalues --    3.08068   3.09327   3.11386   3.12081   3.15488
 Alpha virt. eigenvalues --    3.21500   3.22580   3.23628   3.28418   3.30207
 Alpha virt. eigenvalues --    3.32378   3.32953   3.37721   3.40552   3.44674
 Alpha virt. eigenvalues --    3.45494   3.46356   3.50786   3.53693   3.54764
 Alpha virt. eigenvalues --    3.58677   3.62458   3.63805   3.65403   3.76972
 Alpha virt. eigenvalues --    3.81523   3.90864   3.93652   3.96424   4.03369
 Alpha virt. eigenvalues --    4.19350   4.24313   4.25414   4.34369   4.37109
 Alpha virt. eigenvalues --    4.41779   4.47182   4.53620   4.57436   4.78884
 Alpha virt. eigenvalues --    5.15086   5.16525   5.18263   5.20677   5.29642
 Alpha virt. eigenvalues --    5.32415   5.40006   5.42078   5.45799   5.49768
 Alpha virt. eigenvalues --    5.80315   5.86977   6.03909   6.23964   6.42653
 Alpha virt. eigenvalues --    6.44313   6.55231   6.59893   6.61401   6.68406
 Alpha virt. eigenvalues --    6.74959   6.81486   6.82692   6.96400   7.07037
 Alpha virt. eigenvalues --    7.16658   7.23484  12.02034  22.37165  22.41116
 Alpha virt. eigenvalues --   22.45688  43.66276  43.95046
          Condensed to atoms (all electrons):
              1          2          3          4          5          6
     1  H    0.550462   0.408807  -0.033252  -0.025311  -0.024417  -0.006856
     2  C    0.408807   4.941226   0.311399   0.401357   0.413320  -0.030360
     3  C   -0.033252   0.311399   5.047692  -0.045195  -0.040236   0.386611
     4  H   -0.025311   0.401357  -0.045195   0.589562  -0.028259  -0.004941
     5  H   -0.024417   0.413320  -0.040236  -0.028259   0.533152   0.007825
     6  H   -0.006856  -0.030360   0.386611  -0.004941   0.007825   0.580315
     7  Si   0.007500  -0.018717   0.424390  -0.006620  -0.007752  -0.027929
     8  H   -0.007013  -0.027288   0.369314   0.008922  -0.004096  -0.026014
     9  O   -0.000014  -0.002573  -0.040921   0.004172  -0.000419  -0.001150
    10  O    0.000009  -0.004876  -0.031638   0.000447   0.007520   0.001296
    11  H   -0.000114   0.001922  -0.035995   0.000209   0.000419   0.001480
    12  H   -0.000109   0.000810  -0.002526   0.002374   0.000053   0.000084
    13  C    0.000009  -0.000056   0.002148   0.000086  -0.000092  -0.000129
    14  H   -0.000004   0.000223  -0.000429  -0.000002  -0.000164   0.000000
    15  H    0.000000  -0.000037  -0.000074  -0.000001   0.000083   0.000006
    16  H    0.000001  -0.000143   0.000853  -0.000012   0.000018   0.000014
              7          8          9         10         11         12
     1  H    0.007500  -0.007013  -0.000014   0.000009  -0.000114  -0.000109
     2  C   -0.018717  -0.027288  -0.002573  -0.004876   0.001922   0.000810
     3  C    0.424390   0.369314  -0.040921  -0.031638  -0.035995  -0.002526
     4  H   -0.006620   0.008922   0.004172   0.000447   0.000209   0.002374
     5  H   -0.007752  -0.004096  -0.000419   0.007520   0.000419   0.000053
     6  H   -0.027929  -0.026014  -0.001150   0.001296   0.001480   0.000084
     7  Si  11.879946  -0.014416   0.493463   0.452480   0.390778  -0.030681
     8  H   -0.014416   0.579101   0.002073   0.001842   0.000848  -0.000003
     9  O    0.493463   0.002073   7.785283  -0.038706  -0.017206   0.304257
    10  O    0.452480   0.001842  -0.038706   7.849380  -0.026899  -0.001435
    11  H    0.390778   0.000848  -0.017206  -0.026899   0.740070   0.004781
    12  H   -0.030681  -0.000003   0.304257  -0.001435   0.004781   0.399324
    13  C   -0.049004   0.000065  -0.006966   0.262426   0.002429   0.000847
    14  H    0.007463   0.000001   0.000068  -0.041208  -0.000235   0.000022
    15  H   -0.017703  -0.000017  -0.000537  -0.042829   0.010461  -0.000050
    16  H   -0.005142  -0.000018   0.006625  -0.044658  -0.002060   0.000434
             13         14         15         16
     1  H    0.000009  -0.000004   0.000000   0.000001
     2  C   -0.000056   0.000223  -0.000037  -0.000143
     3  C    0.002148  -0.000429  -0.000074   0.000853
     4  H    0.000086  -0.000002  -0.000001  -0.000012
     5  H   -0.000092  -0.000164   0.000083   0.000018
     6  H   -0.000129   0.000000   0.000006   0.000014
     7  Si  -0.049004   0.007463  -0.017703  -0.005142
     8  H    0.000065   0.000001  -0.000017  -0.000018
     9  O   -0.006966   0.000068  -0.000537   0.006625
    10  O    0.262426  -0.041208  -0.042829  -0.044658
    11  H    0.002429  -0.000235   0.010461  -0.002060
    12  H    0.000847   0.000022  -0.000050   0.000434
    13  C    4.765757   0.403377   0.418112   0.411868
    14  H    0.403377   0.567038  -0.030391  -0.034195
    15  H    0.418112  -0.030391   0.593940  -0.048445
    16  H    0.411868  -0.034195  -0.048445   0.598031
 Mulliken atomic charges:
              1
     1  H    0.130300
     2  C   -0.395013
     3  C   -0.312140
     4  H    0.103212
     5  H    0.143045
     6  H    0.119747
     7  Si   0.521943
     8  H    0.116701
     9  O   -0.487449
    10  O   -0.343152
    11  H   -0.070885
    12  H    0.321820
    13  C   -0.210877
    14  H    0.128436
    15  H    0.117483
    16  H    0.116829
 Sum of Mulliken atomic charges =   0.00000
 Mulliken charges with hydrogens summed into heavy atoms:
              1
     2  C   -0.018456
     3  C   -0.075692
     7  Si   0.451057
     9  O   -0.165629
    10  O   -0.343152
    13  C    0.151870
 Sum of Mulliken charges with hydrogens summed into heavy atoms =   0.00000
 Electronic spatial extent (au):  <R**2>=            859.1060
 Charge=              0.0000 electrons
 Dipole moment (field-independent basis, Debye):
    X=             -0.2772    Y=             -0.3797    Z=             -1.0656  Tot=              1.1647
 Quadrupole moment (field-independent basis, Debye-Ang):
   XX=            -41.3671   YY=            -48.8803   ZZ=            -42.8721
   XY=             -1.5931   XZ=             -0.1825   YZ=             -1.7479
 Traceless Quadrupole moment (field-independent basis, Debye-Ang):
   XX=              3.0061   YY=             -4.5072   ZZ=              1.5010
   XY=             -1.5931   XZ=             -0.1825   YZ=             -1.7479
 Octapole moment (field-independent basis, Debye-Ang**2):
  XXX=             14.4760  YYY=             -5.1802  ZZZ=            -11.3702  XYY=             -0.6020
  XXY=             -1.8184  XXZ=             -1.2793  XZZ=              0.5601  YZZ=              4.6709
  YYZ=             -3.1212  XYZ=              1.7299
 Hexadecapole moment (field-independent basis, Debye-Ang**3):
 XXXX=           -708.0158 YYYY=           -281.3264 ZZZZ=           -162.8547 XXXY=            -12.2720
 XXXZ=             -5.9342 YYYX=            -11.7363 YYYZ=             -6.2518 ZZZX=             -2.4706
 ZZZY=            -20.2699 XXYY=           -161.1878 XXZZ=           -151.2053 YYZZ=            -65.7134
 XXYZ=             -1.4449 YYXZ=             -1.6474 ZZXY=             -4.8729
 N-N= 3.321640366976D+02 E-N=-1.988477587201D+03  KE= 5.584021598351D+02
 1\1\GINC-TARSUS2\SP\RPBE1PBE\def2TZVP\C3H10O2Si1\RENATO\10-Aug-2018\0\
 \#SP PBE1PBE/Def2TZVP geom=connectivity\\Structure: 138\\0,1\H,0,0.,0.
 ,0.\C,0,1.093,0.,0.\C,0,1.655,1.421,0.\H,0,1.41,-0.56,-0.885\H,0,1.424
 ,-0.557,0.88\H,0,1.308,1.969,-0.883\Si,0,3.513,1.515,0.035\H,0,1.282,1
 .975,0.868\O,0,4.188,0.808,-1.204\O,0,3.968,0.824,1.454\H,0,4.029,2.90
 6,-0.04\H,0,3.948,-0.103,-1.378\C,0,5.301,0.766,1.905\H,0,5.308,0.322,
 2.902\H,0,5.747,1.766,1.967\H,0,5.921,0.153,1.244\\Version=EM64L-G09Re
 vC.01\State=1-A\HF=-560.0580746\RMSD=8.613e-09\Dipole=-0.0893543,-0.44
 93056,0.0110895\Quadrupole=0.7638843,0.2271063,-0.9909906,-1.1634343,2
 .4287041,1.9452567\PG=C01 [X(C3H10O2Si1)]\\@


 WE HAVE SEEN THAT MAN ON THE AVERAGE DOES NOT LIVE ABOVE
 TWO-AND-TWENTY YEARS.  DURING THESE TWO AND TWENTY
 YEARS HE IS LIABLE TO TWO AND TWENTY THOUSAND EVILS,
 MANY OF WHICH ARE INCURABLE.  YET EVEN IN THIS DREADFUL STATE
 MEN STILL STRUT AND POSE ON THE STAGE OF LIFE.
 THEY MAKE LOVE AT THE RISK OF DESTRUCTION,
 INTRIGUE, CARRY ON WAR, AND FORM PROJECTS, JUST AS IF THEY
 WERE TO LIVE IN LUXURY AND HAPPINESS FOR A THOUSAND
 AGES.

                                              -- VOLTAIRE
 Job cpu time:  0 days  0 hours 12 minutes 55.4 seconds.
 File lengths (MBytes):  RWF=     40 Int=      0 D2E=      0 Chk=      3 Scr=      1
 Normal termination of Gaussian 09 at Fri Aug 10 01:40:32 2018.
