 Entering Gaussian System, Link 0=g09
 Initial command:
 /usr/local/gaussian09/g09/l1.exe /scratch/renato/Gau-7332.inp -scrdir=/scratch/renato/
 Entering Link 1 = /usr/local/gaussian09/g09/l1.exe PID=      7334.
  
 Copyright (c) 1988,1990,1992,1993,1995,1998,2003,2009,2011,
            Gaussian, Inc.  All Rights Reserved.
  
 This is part of the Gaussian(R) 09 program.  It is based on
 the Gaussian(R) 03 system (copyright 2003, Gaussian, Inc.),
 the Gaussian(R) 98 system (copyright 1998, Gaussian, Inc.),
 the Gaussian(R) 94 system (copyright 1995, Gaussian, Inc.),
 the Gaussian 92(TM) system (copyright 1992, Gaussian, Inc.),
 the Gaussian 90(TM) system (copyright 1990, Gaussian, Inc.),
 the Gaussian 88(TM) system (copyright 1988, Gaussian, Inc.),
 the Gaussian 86(TM) system (copyright 1986, Carnegie Mellon
 University), and the Gaussian 82(TM) system (copyright 1983,
 Carnegie Mellon University). Gaussian is a federally registered
 trademark of Gaussian, Inc.
  
 This software contains proprietary and confidential information,
 including trade secrets, belonging to Gaussian, Inc.
  
 This software is provided under written license and may be
 used, copied, transmitted, or stored only in accord with that
 written license.
  
 The following legend is applicable only to US Government
 contracts under FAR:
  
                    RESTRICTED RIGHTS LEGEND
  
 Use, reproduction and disclosure by the US Government is
 subject to restrictions as set forth in subparagraphs (a)
 and (c) of the Commercial Computer Software - Restricted
 Rights clause in FAR 52.227-19.
  
 Gaussian, Inc.
 340 Quinnipiac St., Bldg. 40, Wallingford CT 06492
  
  
 ---------------------------------------------------------------
 Warning -- This program may not be used in any manner that
 competes with the business of Gaussian, Inc. or will provide
 assistance to any competitor of Gaussian, Inc.  The licensee
 of this program is prohibited from giving any competitor of
 Gaussian, Inc. access to this program.  By using this program,
 the user acknowledges that Gaussian, Inc. is engaged in the
 business of creating and licensing software in the field of
 computational chemistry and represents and warrants to the
 licensee that it is not a competitor of Gaussian, Inc. and that
 it will not use this program in any manner prohibited above.
 ---------------------------------------------------------------
  

 Cite this work as:
 Gaussian 09, Revision C.01,
 M. J. Frisch, G. W. Trucks, H. B. Schlegel, G. E. Scuseria, 
 M. A. Robb, J. R. Cheeseman, G. Scalmani, V. Barone, B. Mennucci, 
 G. A. Petersson, H. Nakatsuji, M. Caricato, X. Li, H. P. Hratchian, 
 A. F. Izmaylov, J. Bloino, G. Zheng, J. L. Sonnenberg, M. Hada, 
 M. Ehara, K. Toyota, R. Fukuda, J. Hasegawa, M. Ishida, T. Nakajima, 
 Y. Honda, O. Kitao, H. Nakai, T. Vreven, J. A. Montgomery, Jr., 
 J. E. Peralta, F. Ogliaro, M. Bearpark, J. J. Heyd, E. Brothers, 
 K. N. Kudin, V. N. Staroverov, T. Keith, R. Kobayashi, J. Normand, 
 K. Raghavachari, A. Rendell, J. C. Burant, S. S. Iyengar, J. Tomasi, 
 M. Cossi, N. Rega, J. M. Millam, M. Klene, J. E. Knox, J. B. Cross, 
 V. Bakken, C. Adamo, J. Jaramillo, R. Gomperts, R. E. Stratmann, 
 O. Yazyev, A. J. Austin, R. Cammi, C. Pomelli, J. W. Ochterski, 
 R. L. Martin, K. Morokuma, V. G. Zakrzewski, G. A. Voth, 
 P. Salvador, J. J. Dannenberg, S. Dapprich, A. D. Daniels, 
 O. Farkas, J. B. Foresman, J. V. Ortiz, J. Cioslowski, 
 and D. J. Fox, Gaussian, Inc., Wallingford CT, 2010.
 
 ******************************************
 Gaussian 09:  EM64L-G09RevC.01 23-Sep-2011
                 9-Aug-2018 
 ******************************************
 %nproc=2
 Will use up to    2 processors via shared memory.
 %mem=256MB
 %RWF=bm3.rwf
 %chk=bm3108
 %NoSave
 --------------------------------------
 #SP PBE1PBE/Def2TZVP geom=connectivity
 --------------------------------------
 1/38=1,57=2/1;
 2/12=2,17=6,18=5,40=1/2;
 3/5=44,7=101,11=2,16=1,25=1,30=1,74=-13/1,2,3;
 4//1;
 5/5=2,38=5/2;
 6/7=2,8=2,9=2,10=2,28=1/1;
 99/5=1,9=1/99;
 --------------
 Structure: 108
 --------------
 Charge =  0 Multiplicity = 1
 Symbolic Z-Matrix:
 H                     0.        0.        0. 
 C                     1.093     0.        0. 
 C                     1.655     1.421     0. 
 H                     1.41     -0.56     -0.885 
 H                     1.424    -0.557     0.88 
 H                     1.308     1.969    -0.883 
 Si                    3.513     1.515     0.035 
 H                     1.282     1.975     0.868 
 O                     4.162     0.835    -1.157 
 O                     3.968     0.824     1.454 
 H                     4.029     2.906    -0.04 
 H                     3.923    -0.076    -1.331 
 C                     5.301     0.766     1.905 
 H                     5.308     0.322     2.902 
 H                     5.747     1.766     1.967 
 H                     5.921     0.153     1.244 
 
                          Input orientation:                          
 ---------------------------------------------------------------------
 Center     Atomic      Atomic             Coordinates (Angstroms)
 Number     Number       Type             X           Y           Z
 ---------------------------------------------------------------------
      1          1           0        0.000000    0.000000    0.000000
      2          6           0        1.093000    0.000000    0.000000
      3          6           0        1.655000    1.421000    0.000000
      4          1           0        1.410000   -0.560000   -0.885000
      5          1           0        1.424000   -0.557000    0.880000
      6          1           0        1.308000    1.969000   -0.883000
      7         14           0        3.513000    1.515000    0.035000
      8          1           0        1.282000    1.975000    0.868000
      9          8           0        4.162000    0.835000   -1.157000
     10          8           0        3.968000    0.824000    1.454000
     11          1           0        4.029000    2.906000   -0.040000
     12          1           0        3.923000   -0.076000   -1.331000
     13          6           0        5.301000    0.766000    1.905000
     14          1           0        5.308000    0.322000    2.902000
     15          1           0        5.747000    1.766000    1.967000
     16          1           0        5.921000    0.153000    1.244000
 ---------------------------------------------------------------------
                    Distance matrix (angstroms):
                    1          2          3          4          5
     1  H    0.000000
     2  C    1.093000   0.000000
     3  C    2.181345   1.528098   0.000000
     4  H    1.756395   1.094218   2.183486   0.000000
     5  H    1.764207   1.092799   2.177210   1.765058   0.000000
     6  H    2.523393   2.168611   1.095629   2.531057   3.082580
     7  Si   3.825914   2.855320   1.860706   3.094291   3.061230
     8  H    2.509497   2.165588   1.095203   3.084740   2.536007
     9  O    4.399786   3.384470   2.822604   3.097340   3.685604
    10  O    4.305591   3.325465   2.796515   3.732257   2.951029
    11  H    4.967824   4.131166   2.800482   4.425646   4.429988
    12  H    4.143340   3.128296   3.025953   2.597757   3.371184
    13  C    5.684750   4.682205   4.165497   4.968124   4.222805
    14  H    6.058065   5.127525   4.793101   5.505788   4.466160
    15  H    6.325809   5.352342   4.553304   5.688036   5.026552
    16  H    6.052205   4.988039   4.621051   5.038862   4.567232
                    6          7          8          9         10
     6  H    0.000000
     7  Si   2.431227   0.000000
     8  H    1.751203   2.425459   0.000000
     9  O    3.083237   1.518046   3.700625   0.000000
    10  O    3.721316   1.642579   2.980401   2.618220   0.000000
    11  H    2.998743   1.485517   3.039282   2.356781   2.563295
    12  H    3.349769   2.136665   4.002135   0.957767   2.927157
    13  C    5.016393   2.693482   4.323125   3.267710   1.408423
    14  H    5.747942   3.586776   4.803982   4.248761   2.035757
    15  H    5.279056   2.964183   4.603011   3.624688   2.077348
    16  H    5.394604   3.019137   4.998138   3.053524   2.075705
                   11         12         13         14         15
    11  H    0.000000
    12  H    3.251191   0.000000
    13  C    3.159210   3.616565   0.000000
    14  H    4.119255   4.471568   1.091418   0.000000
    15  H    2.877355   4.194847   1.096704   1.775410   0.000000
    16  H    3.578733   3.267273   1.094116   1.775752   1.776168
                   16
    16  H    0.000000
 Stoichiometry    C3H10O2Si
 Framework group  C1[X(C3H10O2Si)]
 Deg. of freedom    42
 Full point group                 C1      NOp   1
 Largest Abelian subgroup         C1      NOp   1
 Largest concise Abelian subgroup C1      NOp   1
                         Standard orientation:                         
 ---------------------------------------------------------------------
 Center     Atomic      Atomic             Coordinates (Angstroms)
 Number     Number       Type             X           Y           Z
 ---------------------------------------------------------------------
      1          1           0       -3.228055   -1.220405   -0.413759
      2          6           0       -2.233760   -0.807964   -0.603285
      3          6           0       -1.620143   -0.215318    0.664520
      4          1           0       -2.347681   -0.053776   -1.387845
      5          1           0       -1.612872   -1.612359   -1.005350
      6          1           0       -2.257462    0.583288    1.060064
      7         14           0        0.091153    0.479941    0.440233
      8          1           0       -1.564550   -0.977175    1.449347
      9          8           0        0.145048    1.599425   -0.583640
     10          8           0        1.035633   -0.791374    0.004591
     11          1           0        0.630089    1.113682    1.670957
     12          1           0       -0.209161    1.419502   -1.455123
     13          6           0        2.428528   -0.703715   -0.184655
     14          1           0        2.810667   -1.703827   -0.396647
     15          1           0        2.931648   -0.322558    0.712200
     16          1           0        2.678038   -0.047961   -1.024191
 ---------------------------------------------------------------------
 Rotational constants (GHZ):      4.3063065      1.9117213      1.6102437
 Standard basis: def2TZVP (5D, 7F)
 There are   252 symmetry adapted basis functions of A   symmetry.
 Integral buffers will be    131072 words long.
 Raffenetti 2 integral format.
 Two-electron integral symmetry is turned on.
   252 basis functions,   404 primitive gaussians,   282 cartesian basis functions
    29 alpha electrons       29 beta electrons
       nuclear repulsion energy       334.4857313529 Hartrees.
 NAtoms=   16 NActive=   16 NUniq=   16 SFac= 1.00D+00 NAtFMM=   60 NAOKFM=F Big=F
 One-electron integrals computed using PRISM.
   1 Symmetry operations used in ECPInt.
 ECPInt:  NShTT=    5886 NPrTT=   17754 LenC2=    5783 LenP2D=   13949.
 LDataN:  DoStor=T MaxTD1= 6 Len=  172
 NBasis=   252 RedAO= T  NBF=   252
 NBsUse=   252 1.00D-06 NBFU=   252
 Harris functional with IExCor= 1009 diagonalized for initial guess.
 ExpMin= 7.01D-02 ExpMax= 4.48D+04 ExpMxC= 1.53D+03 IAcc=2 IRadAn=         4 AccDes= 0.00D+00
 HarFok:  IExCor= 1009 AccDes= 0.00D+00 IRadAn=         4 IDoV= 1
 ScaDFX=  1.000000  1.000000  1.000000  1.000000
 FoFCou: FMM=F IPFlag=           0 FMFlag=      100000 FMFlg1=           0
         NFxFlg=           0 DoJE=T BraDBF=F KetDBF=T FulRan=T
         Omega=  0.000000  0.000000  1.000000  0.000000  0.000000 ICntrl=     500 IOpCl=  0
         NMat0=    1 NMatS0=    1 NMatT0=    0 NMatD0=    1 NMtDS0=    0 NMtDT0=    0
         I1Cent=           4 NGrid=           0.
 Petite list used in FoFCou.
 Initial guess orbital symmetries:
       Occupied  (A) (A) (A) (A) (A) (A) (A) (A) (A) (A) (A) (A)
                 (A) (A) (A) (A) (A) (A) (A) (A) (A) (A) (A) (A)
                 (A) (A) (A) (A) (A)
       Virtual   (A) (A) (A) (A) (A) (A) (A) (A) (A) (A) (A) (A)
                 (A) (A) (A) (A) (A) (A) (A) (A) (A) (A) (A) (A)
                 (A) (A) (A) (A) (A) (A) (A) (A) (A) (A) (A) (A)
                 (A) (A) (A) (A) (A) (A) (A) (A) (A) (A) (A) (A)
                 (A) (A) (A) (A) (A) (A) (A) (A) (A) (A) (A) (A)
                 (A) (A) (A) (A) (A) (A) (A) (A) (A) (A) (A) (A)
                 (A) (A) (A) (A) (A) (A) (A) (A) (A) (A) (A) (A)
                 (A) (A) (A) (A) (A) (A) (A) (A) (A) (A) (A) (A)
                 (A) (A) (A) (A) (A) (A) (A) (A) (A) (A) (A) (A)
                 (A) (A) (A) (A) (A) (A) (A) (A) (A) (A) (A) (A)
                 (A) (A) (A) (A) (A) (A) (A) (A) (A) (A) (A) (A)
                 (A) (A) (A) (A) (A) (A) (A) (A) (A) (A) (A) (A)
                 (A) (A) (A) (A) (A) (A) (A) (A) (A) (A) (A) (A)
                 (A) (A) (A) (A) (A) (A) (A) (A) (A) (A) (A) (A)
                 (A) (A) (A) (A) (A) (A) (A) (A) (A) (A) (A) (A)
                 (A) (A) (A) (A) (A) (A) (A) (A) (A) (A) (A) (A)
                 (A) (A) (A) (A) (A) (A) (A) (A) (A) (A) (A) (A)
                 (A) (A) (A) (A) (A) (A) (A) (A) (A) (A) (A) (A)
                 (A) (A) (A) (A) (A) (A) (A)
 The electronic state of the initial guess is 1-A.
 Requested convergence on RMS density matrix=1.00D-08 within 128 cycles.
 Requested convergence on MAX density matrix=1.00D-06.
 Requested convergence on             energy=1.00D-06.
 No special actions if energy rises.
 Integral accuracy reduced to 1.0D-05 until final iterations.
 Initial convergence to 1.0D-05 achieved.  Increase integral accuracy.
 SCF Done:  E(RPBE1PBE) =  -560.048810395     A.U. after   12 cycles
             Convg  =    0.9855D-08             -V/T =  2.0026

 **********************************************************************

            Population analysis using the SCF density.

 **********************************************************************

 Orbital symmetries:
       Occupied  (A) (A) (A) (A) (A) (A) (A) (A) (A) (A) (A) (A)
                 (A) (A) (A) (A) (A) (A) (A) (A) (A) (A) (A) (A)
                 (A) (A) (A) (A) (A)
       Virtual   (A) (A) (A) (A) (A) (A) (A) (A) (A) (A) (A) (A)
                 (A) (A) (A) (A) (A) (A) (A) (A) (A) (A) (A) (A)
                 (A) (A) (A) (A) (A) (A) (A) (A) (A) (A) (A) (A)
                 (A) (A) (A) (A) (A) (A) (A) (A) (A) (A) (A) (A)
                 (A) (A) (A) (A) (A) (A) (A) (A) (A) (A) (A) (A)
                 (A) (A) (A) (A) (A) (A) (A) (A) (A) (A) (A) (A)
                 (A) (A) (A) (A) (A) (A) (A) (A) (A) (A) (A) (A)
                 (A) (A) (A) (A) (A) (A) (A) (A) (A) (A) (A) (A)
                 (A) (A) (A) (A) (A) (A) (A) (A) (A) (A) (A) (A)
                 (A) (A) (A) (A) (A) (A) (A) (A) (A) (A) (A) (A)
                 (A) (A) (A) (A) (A) (A) (A) (A) (A) (A) (A) (A)
                 (A) (A) (A) (A) (A) (A) (A) (A) (A) (A) (A) (A)
                 (A) (A) (A) (A) (A) (A) (A) (A) (A) (A) (A) (A)
                 (A) (A) (A) (A) (A) (A) (A) (A) (A) (A) (A) (A)
                 (A) (A) (A) (A) (A) (A) (A) (A) (A) (A) (A) (A)
                 (A) (A) (A) (A) (A) (A) (A) (A) (A) (A) (A) (A)
                 (A) (A) (A) (A) (A) (A) (A) (A) (A) (A) (A) (A)
                 (A) (A) (A) (A) (A) (A) (A) (A) (A) (A) (A) (A)
                 (A) (A) (A) (A) (A) (A) (A)
 The electronic state is 1-A.
 Alpha  occ. eigenvalues --  -66.23591 -19.20908 -19.19399 -10.26234 -10.21617
 Alpha  occ. eigenvalues --  -10.20314  -5.31718  -3.65270  -3.65106  -3.64951
 Alpha  occ. eigenvalues --   -1.06605  -1.02988  -0.77935  -0.70234  -0.63855
 Alpha  occ. eigenvalues --   -0.58722  -0.51400  -0.46684  -0.46482  -0.46026
 Alpha  occ. eigenvalues --   -0.43415  -0.40895  -0.40478  -0.38276  -0.36866
 Alpha  occ. eigenvalues --   -0.35856  -0.31600  -0.30105  -0.29160
 Alpha virt. eigenvalues --    0.02173   0.05929   0.06305   0.08242   0.09065
 Alpha virt. eigenvalues --    0.10370   0.11143   0.11789   0.12444   0.13540
 Alpha virt. eigenvalues --    0.14736   0.15367   0.16527   0.17108   0.19543
 Alpha virt. eigenvalues --    0.21472   0.22306   0.23841   0.24780   0.25096
 Alpha virt. eigenvalues --    0.26629   0.28779   0.29202   0.30281   0.32145
 Alpha virt. eigenvalues --    0.33493   0.36588   0.39149   0.40566   0.41001
 Alpha virt. eigenvalues --    0.42108   0.42713   0.44344   0.45155   0.46039
 Alpha virt. eigenvalues --    0.46509   0.47602   0.47996   0.50276   0.50871
 Alpha virt. eigenvalues --    0.52373   0.53500   0.55364   0.57194   0.59721
 Alpha virt. eigenvalues --    0.60737   0.63332   0.65917   0.67185   0.67684
 Alpha virt. eigenvalues --    0.74251   0.75343   0.75929   0.78783   0.82165
 Alpha virt. eigenvalues --    0.83918   0.84173   0.86403   0.88551   0.92093
 Alpha virt. eigenvalues --    0.93513   0.95796   0.97740   1.00110   1.01233
 Alpha virt. eigenvalues --    1.04766   1.07393   1.09541   1.10846   1.11753
 Alpha virt. eigenvalues --    1.12510   1.15071   1.16344   1.20208   1.21916
 Alpha virt. eigenvalues --    1.25663   1.31166   1.33204   1.37470   1.41871
 Alpha virt. eigenvalues --    1.42772   1.46859   1.49402   1.50306   1.52946
 Alpha virt. eigenvalues --    1.53439   1.54992   1.55306   1.56627   1.58104
 Alpha virt. eigenvalues --    1.59524   1.63081   1.64279   1.65343   1.66717
 Alpha virt. eigenvalues --    1.68472   1.72948   1.76623   1.79763   1.80829
 Alpha virt. eigenvalues --    1.81341   1.83770   1.86369   1.89608   1.92955
 Alpha virt. eigenvalues --    1.95459   1.96443   2.00374   2.03439   2.05887
 Alpha virt. eigenvalues --    2.06531   2.09083   2.13142   2.13208   2.16015
 Alpha virt. eigenvalues --    2.18136   2.20163   2.26219   2.30069   2.30894
 Alpha virt. eigenvalues --    2.33482   2.33991   2.35290   2.36179   2.36616
 Alpha virt. eigenvalues --    2.37650   2.41005   2.45825   2.48220   2.50584
 Alpha virt. eigenvalues --    2.51575   2.52662   2.55203   2.56410   2.58572
 Alpha virt. eigenvalues --    2.60163   2.61638   2.66068   2.67981   2.71700
 Alpha virt. eigenvalues --    2.73726   2.78714   2.80860   2.85199   2.86542
 Alpha virt. eigenvalues --    2.89375   2.94333   2.96326   3.00229   3.04381
 Alpha virt. eigenvalues --    3.09207   3.09459   3.11582   3.13230   3.15810
 Alpha virt. eigenvalues --    3.21907   3.22704   3.23903   3.29237   3.30461
 Alpha virt. eigenvalues --    3.32646   3.33167   3.38045   3.40747   3.44838
 Alpha virt. eigenvalues --    3.45698   3.46593   3.52677   3.53882   3.56634
 Alpha virt. eigenvalues --    3.58945   3.62621   3.65600   3.66536   3.77142
 Alpha virt. eigenvalues --    3.81732   3.92262   3.95175   3.98884   4.03896
 Alpha virt. eigenvalues --    4.19563   4.24429   4.25640   4.34486   4.37254
 Alpha virt. eigenvalues --    4.41863   4.47377   4.53783   4.57629   4.79043
 Alpha virt. eigenvalues --    5.14688   5.16253   5.18634   5.22391   5.30049
 Alpha virt. eigenvalues --    5.35605   5.41727   5.43856   5.46200   5.50475
 Alpha virt. eigenvalues --    5.80662   5.87250   6.04130   6.25203   6.43598
 Alpha virt. eigenvalues --    6.45375   6.56505   6.60498   6.62533   6.70110
 Alpha virt. eigenvalues --    6.78857   6.82524   6.87360   6.94888   7.08147
 Alpha virt. eigenvalues --    7.17362   7.23169  12.08503  22.37253  22.41245
 Alpha virt. eigenvalues --   22.46013  43.70303  43.95547
          Condensed to atoms (all electrons):
              1          2          3          4          5          6
     1  H    0.549899   0.409209  -0.033058  -0.025275  -0.024243  -0.006838
     2  C    0.409209   4.942494   0.308741   0.401627   0.413676  -0.031364
     3  C   -0.033058   0.308741   5.060000  -0.045713  -0.040754   0.385990
     4  H   -0.025275   0.401627  -0.045713   0.592977  -0.028826  -0.004924
     5  H   -0.024243   0.413676  -0.040754  -0.028826   0.532727   0.007888
     6  H   -0.006838  -0.031364   0.385990  -0.004924   0.007888   0.582033
     7  Si   0.007312  -0.017859   0.426436  -0.007428  -0.007230  -0.027092
     8  H   -0.007130  -0.026655   0.368587   0.008962  -0.004104  -0.025647
     9  O   -0.000030  -0.001988  -0.042987   0.003827  -0.000442  -0.001326
    10  O    0.000004  -0.004750  -0.031781   0.000458   0.007461   0.001297
    11  H   -0.000112   0.002052  -0.036943   0.000208   0.000426   0.001587
    12  H   -0.000130   0.001230  -0.002868   0.002644   0.000076   0.000095
    13  C    0.000009  -0.000035   0.002327   0.000078  -0.000115  -0.000131
    14  H   -0.000004   0.000222  -0.000442  -0.000001  -0.000164  -0.000001
    15  H    0.000000  -0.000032  -0.000114  -0.000001   0.000084   0.000006
    16  H    0.000001  -0.000154   0.000882  -0.000011   0.000024   0.000014
              7          8          9         10         11         12
     1  H    0.007312  -0.007130  -0.000030   0.000004  -0.000112  -0.000130
     2  C   -0.017859  -0.026655  -0.001988  -0.004750   0.002052   0.001230
     3  C    0.426436   0.368587  -0.042987  -0.031781  -0.036943  -0.002868
     4  H   -0.007428   0.008962   0.003827   0.000458   0.000208   0.002644
     5  H   -0.007230  -0.004104  -0.000442   0.007461   0.000426   0.000076
     6  H   -0.027092  -0.025647  -0.001326   0.001297   0.001587   0.000095
     7  Si  11.873987  -0.014809   0.514675   0.455168   0.390159  -0.033890
     8  H   -0.014809   0.580086   0.002221   0.001834   0.000894   0.000034
     9  O    0.514675   0.002221   7.726645  -0.041113  -0.018006   0.308260
    10  O    0.455168   0.001834  -0.041113   7.854562  -0.027337  -0.001837
    11  H    0.390159   0.000894  -0.018006  -0.027337   0.748439   0.005367
    12  H   -0.033890   0.000034   0.308260  -0.001837   0.005367   0.394689
    13  C   -0.048168   0.000053  -0.006774   0.262806   0.002407   0.000986
    14  H    0.007222   0.000002   0.000047  -0.041351  -0.000241   0.000023
    15  H   -0.017652  -0.000014  -0.000599  -0.042952   0.010732  -0.000078
    16  H   -0.005689  -0.000019   0.006504  -0.045263  -0.002124   0.000554
             13         14         15         16
     1  H    0.000009  -0.000004   0.000000   0.000001
     2  C   -0.000035   0.000222  -0.000032  -0.000154
     3  C    0.002327  -0.000442  -0.000114   0.000882
     4  H    0.000078  -0.000001  -0.000001  -0.000011
     5  H   -0.000115  -0.000164   0.000084   0.000024
     6  H   -0.000131  -0.000001   0.000006   0.000014
     7  Si  -0.048168   0.007222  -0.017652  -0.005689
     8  H    0.000053   0.000002  -0.000014  -0.000019
     9  O   -0.006774   0.000047  -0.000599   0.006504
    10  O    0.262806  -0.041351  -0.042952  -0.045263
    11  H    0.002407  -0.000241   0.010732  -0.002124
    12  H    0.000986   0.000023  -0.000078   0.000554
    13  C    4.763397   0.404163   0.418118   0.411643
    14  H    0.404163   0.567323  -0.030371  -0.034625
    15  H    0.418118  -0.030371   0.594518  -0.049109
    16  H    0.411643  -0.034625  -0.049109   0.603051
 Mulliken atomic charges:
              1
     1  H    0.130387
     2  C   -0.396415
     3  C   -0.318302
     4  H    0.101398
     5  H    0.143516
     6  H    0.118412
     7  Si   0.504860
     8  H    0.115705
     9  O   -0.448912
    10  O   -0.347206
    11  H   -0.077508
    12  H    0.324845
    13  C   -0.210762
    14  H    0.128197
    15  H    0.117466
    16  H    0.114320
 Sum of Mulliken atomic charges =   0.00000
 Mulliken charges with hydrogens summed into heavy atoms:
              1
     2  C   -0.021115
     3  C   -0.084185
     7  Si   0.427352
     9  O   -0.124068
    10  O   -0.347206
    13  C    0.149221
 Sum of Mulliken charges with hydrogens summed into heavy atoms =   0.00000
 Electronic spatial extent (au):  <R**2>=            852.6102
 Charge=              0.0000 electrons
 Dipole moment (field-independent basis, Debye):
    X=             -0.2690    Y=             -0.2263    Z=             -1.2243  Tot=              1.2738
 Quadrupole moment (field-independent basis, Debye-Ang):
   XX=            -41.5265   YY=            -48.5649   ZZ=            -42.8717
   XY=             -1.5450   XZ=             -0.1704   YZ=             -1.7586
 Traceless Quadrupole moment (field-independent basis, Debye-Ang):
   XX=              2.7946   YY=             -4.2439   ZZ=              1.4494
   XY=             -1.5450   XZ=             -0.1704   YZ=             -1.7586
 Octapole moment (field-independent basis, Debye-Ang**2):
  XXX=             14.5266  YYY=             -4.2480  ZZZ=            -11.8953  XYY=             -0.3964
  XXY=             -1.6132  XXZ=             -1.2712  XZZ=              0.5173  YZZ=              4.3656
  YYZ=             -2.9363  XYZ=              1.6213
 Hexadecapole moment (field-independent basis, Debye-Ang**3):
 XXXX=           -710.1226 YYYY=           -273.5612 ZZZZ=           -159.4331 XXXY=            -12.2347
 XXXZ=             -5.4532 YYYX=            -11.5644 YYYZ=             -5.9314 ZZZX=             -2.2635
 ZZZY=            -20.6986 XXYY=           -160.3155 XXZZ=           -151.2437 YYZZ=            -65.8273
 XXYZ=             -1.9063 YYXZ=             -1.8021 ZZXY=             -4.8080
 N-N= 3.344857313529D+02 E-N=-1.993279584307D+03  KE= 5.585756382389D+02
 1\1\GINC-TARSUS2\SP\RPBE1PBE\def2TZVP\C3H10O2Si1\RENATO\09-Aug-2018\0\
 \#SP PBE1PBE/Def2TZVP geom=connectivity\\Structure: 108\\0,1\H,0,0.,0.
 ,0.\C,0,1.093,0.,0.\C,0,1.655,1.421,0.\H,0,1.41,-0.56,-0.885\H,0,1.424
 ,-0.557,0.88\H,0,1.308,1.969,-0.883\Si,0,3.513,1.515,0.035\H,0,1.282,1
 .975,0.868\O,0,4.162,0.835,-1.157\O,0,3.968,0.824,1.454\H,0,4.029,2.90
 6,-0.04\H,0,3.923,-0.076,-1.331\C,0,5.301,0.766,1.905\H,0,5.308,0.322,
 2.902\H,0,5.747,1.766,1.967\H,0,5.921,0.153,1.244\\Version=EM64L-G09Re
 vC.01\State=1-A\HF=-560.0488104\RMSD=9.855e-09\Dipole=-0.0463562,-0.49
 42449,-0.0686132\Quadrupole=0.7249733,0.0444065,-0.7693797,-1.1957507,
 2.2133503,1.9680143\PG=C01 [X(C3H10O2Si1)]\\@


 DEMOCRATS BUY MOST OF THE BOOKS THAT HAVE BEEN
 BANNED; REPUBLICANS FORM CENSORSHIP COMMITTEES AND
 READ THEM AS A GROUP.
 Job cpu time:  0 days  0 hours 12 minutes 57.6 seconds.
 File lengths (MBytes):  RWF=     40 Int=      0 D2E=      0 Chk=      3 Scr=      1
 Normal termination of Gaussian 09 at Thu Aug  9 23:34:25 2018.
