 Entering Gaussian System, Link 0=g09
 Initial command:
 /usr/local/gaussian09/g09/l1.exe /scratch/renato/Gau-7598.inp -scrdir=/scratch/renato/
 Entering Link 1 = /usr/local/gaussian09/g09/l1.exe PID=      7600.
  
 Copyright (c) 1988,1990,1992,1993,1995,1998,2003,2009,2011,
            Gaussian, Inc.  All Rights Reserved.
  
 This is part of the Gaussian(R) 09 program.  It is based on
 the Gaussian(R) 03 system (copyright 2003, Gaussian, Inc.),
 the Gaussian(R) 98 system (copyright 1998, Gaussian, Inc.),
 the Gaussian(R) 94 system (copyright 1995, Gaussian, Inc.),
 the Gaussian 92(TM) system (copyright 1992, Gaussian, Inc.),
 the Gaussian 90(TM) system (copyright 1990, Gaussian, Inc.),
 the Gaussian 88(TM) system (copyright 1988, Gaussian, Inc.),
 the Gaussian 86(TM) system (copyright 1986, Carnegie Mellon
 University), and the Gaussian 82(TM) system (copyright 1983,
 Carnegie Mellon University). Gaussian is a federally registered
 trademark of Gaussian, Inc.
  
 This software contains proprietary and confidential information,
 including trade secrets, belonging to Gaussian, Inc.
  
 This software is provided under written license and may be
 used, copied, transmitted, or stored only in accord with that
 written license.
  
 The following legend is applicable only to US Government
 contracts under FAR:
  
                    RESTRICTED RIGHTS LEGEND
  
 Use, reproduction and disclosure by the US Government is
 subject to restrictions as set forth in subparagraphs (a)
 and (c) of the Commercial Computer Software - Restricted
 Rights clause in FAR 52.227-19.
  
 Gaussian, Inc.
 340 Quinnipiac St., Bldg. 40, Wallingford CT 06492
  
  
 ---------------------------------------------------------------
 Warning -- This program may not be used in any manner that
 competes with the business of Gaussian, Inc. or will provide
 assistance to any competitor of Gaussian, Inc.  The licensee
 of this program is prohibited from giving any competitor of
 Gaussian, Inc. access to this program.  By using this program,
 the user acknowledges that Gaussian, Inc. is engaged in the
 business of creating and licensing software in the field of
 computational chemistry and represents and warrants to the
 licensee that it is not a competitor of Gaussian, Inc. and that
 it will not use this program in any manner prohibited above.
 ---------------------------------------------------------------
  

 Cite this work as:
 Gaussian 09, Revision C.01,
 M. J. Frisch, G. W. Trucks, H. B. Schlegel, G. E. Scuseria, 
 M. A. Robb, J. R. Cheeseman, G. Scalmani, V. Barone, B. Mennucci, 
 G. A. Petersson, H. Nakatsuji, M. Caricato, X. Li, H. P. Hratchian, 
 A. F. Izmaylov, J. Bloino, G. Zheng, J. L. Sonnenberg, M. Hada, 
 M. Ehara, K. Toyota, R. Fukuda, J. Hasegawa, M. Ishida, T. Nakajima, 
 Y. Honda, O. Kitao, H. Nakai, T. Vreven, J. A. Montgomery, Jr., 
 J. E. Peralta, F. Ogliaro, M. Bearpark, J. J. Heyd, E. Brothers, 
 K. N. Kudin, V. N. Staroverov, T. Keith, R. Kobayashi, J. Normand, 
 K. Raghavachari, A. Rendell, J. C. Burant, S. S. Iyengar, J. Tomasi, 
 M. Cossi, N. Rega, J. M. Millam, M. Klene, J. E. Knox, J. B. Cross, 
 V. Bakken, C. Adamo, J. Jaramillo, R. Gomperts, R. E. Stratmann, 
 O. Yazyev, A. J. Austin, R. Cammi, C. Pomelli, J. W. Ochterski, 
 R. L. Martin, K. Morokuma, V. G. Zakrzewski, G. A. Voth, 
 P. Salvador, J. J. Dannenberg, S. Dapprich, A. D. Daniels, 
 O. Farkas, J. B. Foresman, J. V. Ortiz, J. Cioslowski, 
 and D. J. Fox, Gaussian, Inc., Wallingford CT, 2010.
 
 ******************************************
 Gaussian 09:  EM64L-G09RevC.01 23-Sep-2011
                 9-Aug-2018 
 ******************************************
 %nproc=2
 Will use up to    2 processors via shared memory.
 %mem=256MB
 %RWF=bm3.rwf
 %chk=bm3122
 %NoSave
 --------------------------------------
 #SP PBE1PBE/Def2TZVP geom=connectivity
 --------------------------------------
 1/38=1,57=2/1;
 2/12=2,17=6,18=5,40=1/2;
 3/5=44,7=101,11=2,16=1,25=1,30=1,74=-13/1,2,3;
 4//1;
 5/5=2,38=5/2;
 6/7=2,8=2,9=2,10=2,28=1/1;
 99/5=1,9=1/99;
 --------------
 Structure: 122
 --------------
 Charge =  0 Multiplicity = 1
 Symbolic Z-Matrix:
 H                     0.        0.        0. 
 C                     1.093     0.        0. 
 C                     1.655     1.421     0. 
 H                     1.41     -0.56     -0.885 
 H                     1.424    -0.557     0.88 
 H                     1.308     1.969    -0.883 
 Si                    3.513     1.515     0.035 
 H                     1.282     1.975     0.868 
 O                     4.174     0.823    -1.179 
 O                     3.968     0.824     1.454 
 H                     4.029     2.906    -0.04 
 H                     3.935    -0.089    -1.353 
 C                     5.301     0.766     1.905 
 H                     5.308     0.322     2.902 
 H                     5.747     1.766     1.967 
 H                     5.921     0.153     1.244 
 
                          Input orientation:                          
 ---------------------------------------------------------------------
 Center     Atomic      Atomic             Coordinates (Angstroms)
 Number     Number       Type             X           Y           Z
 ---------------------------------------------------------------------
      1          1           0        0.000000    0.000000    0.000000
      2          6           0        1.093000    0.000000    0.000000
      3          6           0        1.655000    1.421000    0.000000
      4          1           0        1.410000   -0.560000   -0.885000
      5          1           0        1.424000   -0.557000    0.880000
      6          1           0        1.308000    1.969000   -0.883000
      7         14           0        3.513000    1.515000    0.035000
      8          1           0        1.282000    1.975000    0.868000
      9          8           0        4.174000    0.823000   -1.179000
     10          8           0        3.968000    0.824000    1.454000
     11          1           0        4.029000    2.906000   -0.040000
     12          1           0        3.935000   -0.089000   -1.353000
     13          6           0        5.301000    0.766000    1.905000
     14          1           0        5.308000    0.322000    2.902000
     15          1           0        5.747000    1.766000    1.967000
     16          1           0        5.921000    0.153000    1.244000
 ---------------------------------------------------------------------
                    Distance matrix (angstroms):
                    1          2          3          4          5
     1  H    0.000000
     2  C    1.093000   0.000000
     3  C    2.181345   1.528098   0.000000
     4  H    1.756395   1.094218   2.183486   0.000000
     5  H    1.764207   1.092799   2.177210   1.765058   0.000000
     6  H    2.523393   2.168611   1.095629   2.531057   3.082580
     7  Si   3.825914   2.855320   1.860706   3.094291   3.061230
     8  H    2.509497   2.165588   1.095203   3.084740   2.536007
     9  O    4.414708   3.399990   2.844821   3.104645   3.702213
    10  O    4.305591   3.325465   2.796515   3.732257   2.951029
    11  H    4.967824   4.131166   2.800482   4.425646   4.429988
    12  H    4.162061   3.148888   3.051083   2.610841   3.392703
    13  C    5.684750   4.682205   4.165497   4.968124   4.222805
    14  H    6.058065   5.127525   4.793101   5.505788   4.466160
    15  H    6.325809   5.352342   4.553304   5.688036   5.026552
    16  H    6.052205   4.988039   4.621051   5.038862   4.567232
                    6          7          8          9         10
     6  H    0.000000
     7  Si   2.431227   0.000000
     8  H    1.751203   2.425459   0.000000
     9  O    3.100788   1.545827   3.725718   0.000000
    10  O    3.721316   1.642579   2.980401   2.641046   0.000000
    11  H    2.998743   1.485517   3.039282   2.378494   2.563295
    12  H    3.370073   2.162740   4.028814   0.958718   2.951933
    13  C    5.016393   2.693482   4.323125   3.283966   1.408423
    14  H    5.747942   3.586776   4.803982   4.265152   2.035757
    15  H    5.279056   2.964183   4.603011   3.641551   2.077348
    16  H    5.394604   3.019137   4.998138   3.061346   2.075705
                   11         12         13         14         15
    11  H    0.000000
    12  H    3.271518   0.000000
    13  C    3.159210   3.634769   0.000000
    14  H    4.119255   4.489886   1.091418   0.000000
    15  H    2.877355   4.212691   1.096704   1.775410   0.000000
    16  H    3.578733   3.278288   1.094116   1.775752   1.776168
                   16
    16  H    0.000000
 Stoichiometry    C3H10O2Si
 Framework group  C1[X(C3H10O2Si)]
 Deg. of freedom    42
 Full point group                 C1      NOp   1
 Largest Abelian subgroup         C1      NOp   1
 Largest concise Abelian subgroup C1      NOp   1
                         Standard orientation:                         
 ---------------------------------------------------------------------
 Center     Atomic      Atomic             Coordinates (Angstroms)
 Number     Number       Type             X           Y           Z
 ---------------------------------------------------------------------
      1          1           0       -3.228598   -1.215641   -0.431119
      2          6           0       -2.234107   -0.800593   -0.613803
      3          6           0       -1.620526   -0.228604    0.663472
      4          1           0       -2.347580   -0.033867   -1.386182
      5          1           0       -1.613442   -1.598670   -1.028602
      6          1           0       -2.257622    0.563796    1.071653
      7         14           0        0.091081    0.469508    0.450712
      8          1           0       -1.565383   -1.002979    1.435982
      9          8           0        0.146677    1.626367   -0.573088
     10          8           0        1.035167   -0.795014   -0.005088
     11          1           0        0.630005    1.083210    1.691555
     12          1           0       -0.207493    1.460337   -1.448382
     13          6           0        2.428134   -0.704864   -0.192625
     14          1           0        2.809936   -1.701591   -0.420564
     15          1           0        2.931215   -0.338341    0.710331
     16          1           0        2.678066   -0.035816   -1.021479
 ---------------------------------------------------------------------
 Rotational constants (GHZ):      4.2511953      1.9091716      1.6042405
 Standard basis: def2TZVP (5D, 7F)
 There are   252 symmetry adapted basis functions of A   symmetry.
 Integral buffers will be    131072 words long.
 Raffenetti 2 integral format.
 Two-electron integral symmetry is turned on.
   252 basis functions,   404 primitive gaussians,   282 cartesian basis functions
    29 alpha electrons       29 beta electrons
       nuclear repulsion energy       333.3880091739 Hartrees.
 NAtoms=   16 NActive=   16 NUniq=   16 SFac= 1.00D+00 NAtFMM=   60 NAOKFM=F Big=F
 One-electron integrals computed using PRISM.
   1 Symmetry operations used in ECPInt.
 ECPInt:  NShTT=    5886 NPrTT=   17754 LenC2=    5783 LenP2D=   13944.
 LDataN:  DoStor=T MaxTD1= 6 Len=  172
 NBasis=   252 RedAO= T  NBF=   252
 NBsUse=   252 1.00D-06 NBFU=   252
 Harris functional with IExCor= 1009 diagonalized for initial guess.
 ExpMin= 7.01D-02 ExpMax= 4.48D+04 ExpMxC= 1.53D+03 IAcc=2 IRadAn=         4 AccDes= 0.00D+00
 HarFok:  IExCor= 1009 AccDes= 0.00D+00 IRadAn=         4 IDoV= 1
 ScaDFX=  1.000000  1.000000  1.000000  1.000000
 FoFCou: FMM=F IPFlag=           0 FMFlag=      100000 FMFlg1=           0
         NFxFlg=           0 DoJE=T BraDBF=F KetDBF=T FulRan=T
         Omega=  0.000000  0.000000  1.000000  0.000000  0.000000 ICntrl=     500 IOpCl=  0
         NMat0=    1 NMatS0=    1 NMatT0=    0 NMatD0=    1 NMtDS0=    0 NMtDT0=    0
         I1Cent=           4 NGrid=           0.
 Petite list used in FoFCou.
 Initial guess orbital symmetries:
       Occupied  (A) (A) (A) (A) (A) (A) (A) (A) (A) (A) (A) (A)
                 (A) (A) (A) (A) (A) (A) (A) (A) (A) (A) (A) (A)
                 (A) (A) (A) (A) (A)
       Virtual   (A) (A) (A) (A) (A) (A) (A) (A) (A) (A) (A) (A)
                 (A) (A) (A) (A) (A) (A) (A) (A) (A) (A) (A) (A)
                 (A) (A) (A) (A) (A) (A) (A) (A) (A) (A) (A) (A)
                 (A) (A) (A) (A) (A) (A) (A) (A) (A) (A) (A) (A)
                 (A) (A) (A) (A) (A) (A) (A) (A) (A) (A) (A) (A)
                 (A) (A) (A) (A) (A) (A) (A) (A) (A) (A) (A) (A)
                 (A) (A) (A) (A) (A) (A) (A) (A) (A) (A) (A) (A)
                 (A) (A) (A) (A) (A) (A) (A) (A) (A) (A) (A) (A)
                 (A) (A) (A) (A) (A) (A) (A) (A) (A) (A) (A) (A)
                 (A) (A) (A) (A) (A) (A) (A) (A) (A) (A) (A) (A)
                 (A) (A) (A) (A) (A) (A) (A) (A) (A) (A) (A) (A)
                 (A) (A) (A) (A) (A) (A) (A) (A) (A) (A) (A) (A)
                 (A) (A) (A) (A) (A) (A) (A) (A) (A) (A) (A) (A)
                 (A) (A) (A) (A) (A) (A) (A) (A) (A) (A) (A) (A)
                 (A) (A) (A) (A) (A) (A) (A) (A) (A) (A) (A) (A)
                 (A) (A) (A) (A) (A) (A) (A) (A) (A) (A) (A) (A)
                 (A) (A) (A) (A) (A) (A) (A) (A) (A) (A) (A) (A)
                 (A) (A) (A) (A) (A) (A) (A) (A) (A) (A) (A) (A)
                 (A) (A) (A) (A) (A) (A) (A)
 The electronic state of the initial guess is 1-A.
 Requested convergence on RMS density matrix=1.00D-08 within 128 cycles.
 Requested convergence on MAX density matrix=1.00D-06.
 Requested convergence on             energy=1.00D-06.
 No special actions if energy rises.
 Integral accuracy reduced to 1.0D-05 until final iterations.
 Initial convergence to 1.0D-05 achieved.  Increase integral accuracy.
 SCF Done:  E(RPBE1PBE) =  -560.053974308     A.U. after   12 cycles
             Convg  =    0.9063D-08             -V/T =  2.0028

 **********************************************************************

            Population analysis using the SCF density.

 **********************************************************************

 Orbital symmetries:
       Occupied  (A) (A) (A) (A) (A) (A) (A) (A) (A) (A) (A) (A)
                 (A) (A) (A) (A) (A) (A) (A) (A) (A) (A) (A) (A)
                 (A) (A) (A) (A) (A)
       Virtual   (A) (A) (A) (A) (A) (A) (A) (A) (A) (A) (A) (A)
                 (A) (A) (A) (A) (A) (A) (A) (A) (A) (A) (A) (A)
                 (A) (A) (A) (A) (A) (A) (A) (A) (A) (A) (A) (A)
                 (A) (A) (A) (A) (A) (A) (A) (A) (A) (A) (A) (A)
                 (A) (A) (A) (A) (A) (A) (A) (A) (A) (A) (A) (A)
                 (A) (A) (A) (A) (A) (A) (A) (A) (A) (A) (A) (A)
                 (A) (A) (A) (A) (A) (A) (A) (A) (A) (A) (A) (A)
                 (A) (A) (A) (A) (A) (A) (A) (A) (A) (A) (A) (A)
                 (A) (A) (A) (A) (A) (A) (A) (A) (A) (A) (A) (A)
                 (A) (A) (A) (A) (A) (A) (A) (A) (A) (A) (A) (A)
                 (A) (A) (A) (A) (A) (A) (A) (A) (A) (A) (A) (A)
                 (A) (A) (A) (A) (A) (A) (A) (A) (A) (A) (A) (A)
                 (A) (A) (A) (A) (A) (A) (A) (A) (A) (A) (A) (A)
                 (A) (A) (A) (A) (A) (A) (A) (A) (A) (A) (A) (A)
                 (A) (A) (A) (A) (A) (A) (A) (A) (A) (A) (A) (A)
                 (A) (A) (A) (A) (A) (A) (A) (A) (A) (A) (A) (A)
                 (A) (A) (A) (A) (A) (A) (A) (A) (A) (A) (A) (A)
                 (A) (A) (A) (A) (A) (A) (A) (A) (A) (A) (A) (A)
                 (A) (A) (A) (A) (A) (A) (A)
 The electronic state is 1-A.
 Alpha  occ. eigenvalues --  -66.24001 -19.20799 -19.19530 -10.26279 -10.21640
 Alpha  occ. eigenvalues --  -10.20431  -5.32004  -3.65544  -3.65403  -3.65250
 Alpha  occ. eigenvalues --   -1.05924  -1.03002  -0.77991  -0.70293  -0.63888
 Alpha  occ. eigenvalues --   -0.58241  -0.51377  -0.46697  -0.46498  -0.46010
 Alpha  occ. eigenvalues --   -0.43439  -0.40670  -0.40389  -0.37850  -0.36948
 Alpha  occ. eigenvalues --   -0.35877  -0.31675  -0.30181  -0.29277
 Alpha virt. eigenvalues --    0.02204   0.05860   0.06248   0.08196   0.09045
 Alpha virt. eigenvalues --    0.10332   0.11090   0.11722   0.12417   0.13536
 Alpha virt. eigenvalues --    0.14598   0.15340   0.16436   0.16988   0.19493
 Alpha virt. eigenvalues --    0.21442   0.22253   0.23774   0.24749   0.25067
 Alpha virt. eigenvalues --    0.26637   0.28695   0.29247   0.30104   0.31942
 Alpha virt. eigenvalues --    0.33340   0.36602   0.39179   0.40443   0.40928
 Alpha virt. eigenvalues --    0.42069   0.42672   0.44299   0.45164   0.45954
 Alpha virt. eigenvalues --    0.46439   0.47573   0.47967   0.50215   0.50796
 Alpha virt. eigenvalues --    0.52149   0.53458   0.55329   0.57122   0.59792
 Alpha virt. eigenvalues --    0.60739   0.63249   0.65881   0.66922   0.67742
 Alpha virt. eigenvalues --    0.74209   0.75160   0.75776   0.78630   0.81902
 Alpha virt. eigenvalues --    0.83770   0.84093   0.86408   0.88434   0.92052
 Alpha virt. eigenvalues --    0.93401   0.95750   0.97548   0.99985   1.01132
 Alpha virt. eigenvalues --    1.04668   1.07314   1.09410   1.10549   1.11838
 Alpha virt. eigenvalues --    1.12516   1.14235   1.15975   1.19929   1.21724
 Alpha virt. eigenvalues --    1.25510   1.30715   1.32923   1.37251   1.41716
 Alpha virt. eigenvalues --    1.42616   1.46709   1.49088   1.50068   1.52856
 Alpha virt. eigenvalues --    1.53305   1.54871   1.55255   1.56574   1.58017
 Alpha virt. eigenvalues --    1.59493   1.62978   1.64135   1.65064   1.66549
 Alpha virt. eigenvalues --    1.68376   1.72703   1.76435   1.79612   1.80481
 Alpha virt. eigenvalues --    1.80970   1.83531   1.86235   1.89435   1.92712
 Alpha virt. eigenvalues --    1.95363   1.96312   2.00255   2.03157   2.05484
 Alpha virt. eigenvalues --    2.06310   2.08944   2.12633   2.12865   2.15788
 Alpha virt. eigenvalues --    2.17979   2.19805   2.26383   2.29890   2.30671
 Alpha virt. eigenvalues --    2.33409   2.33769   2.35220   2.36020   2.36337
 Alpha virt. eigenvalues --    2.37174   2.40878   2.45404   2.48082   2.50250
 Alpha virt. eigenvalues --    2.51423   2.52450   2.55083   2.56350   2.58506
 Alpha virt. eigenvalues --    2.60029   2.61573   2.65918   2.67750   2.71518
 Alpha virt. eigenvalues --    2.73551   2.78351   2.80784   2.84846   2.86100
 Alpha virt. eigenvalues --    2.88742   2.94125   2.95847   3.00173   3.03925
 Alpha virt. eigenvalues --    3.08682   3.09396   3.11512   3.12653   3.15658
 Alpha virt. eigenvalues --    3.21722   3.22648   3.23777   3.28867   3.30337
 Alpha virt. eigenvalues --    3.32523   3.33065   3.37897   3.40656   3.44764
 Alpha virt. eigenvalues --    3.45623   3.46487   3.52046   3.53803   3.55652
 Alpha virt. eigenvalues --    3.58810   3.62546   3.65029   3.65583   3.77059
 Alpha virt. eigenvalues --    3.81634   3.91797   3.94528   3.97232   4.03575
 Alpha virt. eigenvalues --    4.19458   4.24377   4.25537   4.34433   4.37187
 Alpha virt. eigenvalues --    4.41824   4.47286   4.53708   4.57543   4.78971
 Alpha virt. eigenvalues --    5.14859   5.16389   5.18418   5.21666   5.29849
 Alpha virt. eigenvalues --    5.34305   5.41156   5.42510   5.45937   5.49840
 Alpha virt. eigenvalues --    5.80501   5.87129   6.04026   6.24324   6.43128
 Alpha virt. eigenvalues --    6.44927   6.55904   6.60222   6.61993   6.69309
 Alpha virt. eigenvalues --    6.77468   6.82339   6.84586   6.95635   7.07511
 Alpha virt. eigenvalues --    7.17047   7.23407  12.05725  22.37214  22.41187
 Alpha virt. eigenvalues --   22.45862  43.68418  43.95310
          Condensed to atoms (all electrons):
              1          2          3          4          5          6
     1  H    0.550169   0.409033  -0.033147  -0.025300  -0.024327  -0.006847
     2  C    0.409033   4.941832   0.310000   0.401518   0.413509  -0.030897
     3  C   -0.033147   0.310000   5.054372  -0.045494  -0.040510   0.386286
     4  H   -0.025300   0.401518  -0.045494   0.591425  -0.028567  -0.004932
     5  H   -0.024327   0.413509  -0.040510  -0.028567   0.532947   0.007859
     6  H   -0.006847  -0.030897   0.386286  -0.004932   0.007859   0.581244
     7  Si   0.007396  -0.018225   0.425426  -0.007046  -0.007477  -0.027490
     8  H   -0.007076  -0.026950   0.368901   0.008945  -0.004101  -0.025822
     9  O   -0.000023  -0.002254  -0.042140   0.003990  -0.000431  -0.001241
    10  O    0.000007  -0.004809  -0.031727   0.000453   0.007490   0.001296
    11  H   -0.000113   0.001989  -0.036502   0.000209   0.000423   0.001537
    12  H   -0.000120   0.001023  -0.002704   0.002510   0.000066   0.000091
    13  C    0.000009  -0.000044   0.002243   0.000082  -0.000105  -0.000130
    14  H   -0.000004   0.000222  -0.000436  -0.000002  -0.000164  -0.000001
    15  H    0.000000  -0.000035  -0.000095  -0.000001   0.000084   0.000006
    16  H    0.000001  -0.000149   0.000868  -0.000011   0.000021   0.000014
              7          8          9         10         11         12
     1  H    0.007396  -0.007076  -0.000023   0.000007  -0.000113  -0.000120
     2  C   -0.018225  -0.026950  -0.002254  -0.004809   0.001989   0.001023
     3  C    0.425426   0.368901  -0.042140  -0.031727  -0.036502  -0.002704
     4  H   -0.007046   0.008945   0.003990   0.000453   0.000209   0.002510
     5  H   -0.007477  -0.004101  -0.000431   0.007490   0.000423   0.000066
     6  H   -0.027490  -0.025822  -0.001241   0.001296   0.001537   0.000091
     7  Si  11.876142  -0.014608   0.505158   0.453804   0.390467  -0.032257
     8  H   -0.014608   0.579659   0.002152   0.001839   0.000871   0.000015
     9  O    0.505158   0.002152   7.754570  -0.040047  -0.017647   0.306122
    10  O    0.453804   0.001839  -0.040047   7.852237  -0.027129  -0.001640
    11  H    0.390467   0.000871  -0.017647  -0.027129   0.744522   0.005092
    12  H   -0.032257   0.000015   0.306122  -0.001640   0.005092   0.396824
    13  C   -0.048559   0.000058  -0.006872   0.262629   0.002421   0.000920
    14  H    0.007335   0.000001   0.000057  -0.041283  -0.000238   0.000023
    15  H   -0.017680  -0.000016  -0.000570  -0.042896   0.010606  -0.000064
    16  H   -0.005433  -0.000018   0.006555  -0.044981  -0.002095   0.000496
             13         14         15         16
     1  H    0.000009  -0.000004   0.000000   0.000001
     2  C   -0.000044   0.000222  -0.000035  -0.000149
     3  C    0.002243  -0.000436  -0.000095   0.000868
     4  H    0.000082  -0.000002  -0.000001  -0.000011
     5  H   -0.000105  -0.000164   0.000084   0.000021
     6  H   -0.000130  -0.000001   0.000006   0.000014
     7  Si  -0.048559   0.007335  -0.017680  -0.005433
     8  H    0.000058   0.000001  -0.000016  -0.000018
     9  O   -0.006872   0.000057  -0.000570   0.006555
    10  O    0.262629  -0.041283  -0.042896  -0.044981
    11  H    0.002421  -0.000238   0.010606  -0.002095
    12  H    0.000920   0.000023  -0.000064   0.000496
    13  C    4.764458   0.403802   0.418127   0.411748
    14  H    0.403802   0.567188  -0.030381  -0.034429
    15  H    0.418127  -0.030381   0.594236  -0.048800
    16  H    0.411748  -0.034429  -0.048800   0.600749
 Mulliken atomic charges:
              1
     1  H    0.130340
     2  C   -0.395763
     3  C   -0.315339
     4  H    0.102222
     5  H    0.143285
     6  H    0.119025
     7  Si   0.513048
     8  H    0.116151
     9  O   -0.467379
    10  O   -0.345242
    11  H   -0.074412
    12  H    0.323603
    13  C   -0.210788
    14  H    0.128308
    15  H    0.117479
    16  H    0.115464
 Sum of Mulliken atomic charges =   0.00000
 Mulliken charges with hydrogens summed into heavy atoms:
              1
     2  C   -0.019916
     3  C   -0.080163
     7  Si   0.438635
     9  O   -0.143776
    10  O   -0.345242
    13  C    0.150463
 Sum of Mulliken charges with hydrogens summed into heavy atoms =   0.00000
 Electronic spatial extent (au):  <R**2>=            855.6156
 Charge=              0.0000 electrons
 Dipole moment (field-independent basis, Debye):
    X=             -0.2717    Y=             -0.2953    Z=             -1.1519  Tot=              1.2198
 Quadrupole moment (field-independent basis, Debye-Ang):
   XX=            -41.4550   YY=            -48.7095   ZZ=            -42.8696
   XY=             -1.5663   XZ=             -0.1768   YZ=             -1.7551
 Traceless Quadrupole moment (field-independent basis, Debye-Ang):
   XX=              2.8897   YY=             -4.3648   ZZ=              1.4751
   XY=             -1.5663   XZ=             -0.1768   YZ=             -1.7551
 Octapole moment (field-independent basis, Debye-Ang**2):
  XXX=             14.5057  YYY=             -4.6761  ZZZ=            -11.6654  XYY=             -0.4866
  XXY=             -1.7080  XXZ=             -1.2719  XZZ=              0.5372  YZZ=              4.5184
  YYZ=             -3.0176  XYZ=              1.6711
 Hexadecapole moment (field-independent basis, Debye-Ang**3):
 XXXX=           -709.1545 YYYY=           -277.1385 ZZZZ=           -161.0203 XXXY=            -12.2582
 XXXZ=             -5.6779 YYYX=            -11.6361 YYYZ=             -6.0516 ZZZX=             -2.3601
 ZZZY=            -20.5345 XXYY=           -160.7161 XXZZ=           -151.2343 YYZZ=            -65.7602
 XXYZ=             -1.6891 YYXZ=             -1.7323 ZZXY=             -4.8394
 N-N= 3.333880091739D+02 E-N=-1.991007865530D+03  KE= 5.584891716037D+02
 1\1\GINC-TARSUS2\SP\RPBE1PBE\def2TZVP\C3H10O2Si1\RENATO\09-Aug-2018\0\
 \#SP PBE1PBE/Def2TZVP geom=connectivity\\Structure: 122\\0,1\H,0,0.,0.
 ,0.\C,0,1.093,0.,0.\C,0,1.655,1.421,0.\H,0,1.41,-0.56,-0.885\H,0,1.424
 ,-0.557,0.88\H,0,1.308,1.969,-0.883\Si,0,3.513,1.515,0.035\H,0,1.282,1
 .975,0.868\O,0,4.174,0.823,-1.179\O,0,3.968,0.824,1.454\H,0,4.029,2.90
 6,-0.04\H,0,3.935,-0.089,-1.353\C,0,5.301,0.766,1.905\H,0,5.308,0.322,
 2.902\H,0,5.747,1.766,1.967\H,0,5.921,0.153,1.244\\Version=EM64L-G09Re
 vC.01\State=1-A\HF=-560.0539743\RMSD=9.063e-09\Dipole=-0.0656312,-0.47
 43224,-0.0319364\Quadrupole=0.7422438,0.1296413,-0.8718851,-1.1833248,
 2.3111715,1.9608643\PG=C01 [X(C3H10O2Si1)]\\@


 THE POLHOLDE ROLLS WITHOUT SLIPPING ON THE HERPOLHOLDE LYING IN
 THE INVARIABLE PLANE.
 H.GOLDSTEIN, "CLASSICAL MECHANICS", PG 161
 Job cpu time:  0 days  0 hours 12 minutes 51.5 seconds.
 File lengths (MBytes):  RWF=     40 Int=      0 D2E=      0 Chk=      3 Scr=      1
 Normal termination of Gaussian 09 at Thu Aug  9 23:56:35 2018.
