 Entering Gaussian System, Link 0=g09
 Initial command:
 /usr/local/gaussian09/g09/l1.exe /scratch/renato/Gau-9222.inp -scrdir=/scratch/renato/
 Entering Link 1 = /usr/local/gaussian09/g09/l1.exe PID=      9224.
  
 Copyright (c) 1988,1990,1992,1993,1995,1998,2003,2009,2011,
            Gaussian, Inc.  All Rights Reserved.
  
 This is part of the Gaussian(R) 09 program.  It is based on
 the Gaussian(R) 03 system (copyright 2003, Gaussian, Inc.),
 the Gaussian(R) 98 system (copyright 1998, Gaussian, Inc.),
 the Gaussian(R) 94 system (copyright 1995, Gaussian, Inc.),
 the Gaussian 92(TM) system (copyright 1992, Gaussian, Inc.),
 the Gaussian 90(TM) system (copyright 1990, Gaussian, Inc.),
 the Gaussian 88(TM) system (copyright 1988, Gaussian, Inc.),
 the Gaussian 86(TM) system (copyright 1986, Carnegie Mellon
 University), and the Gaussian 82(TM) system (copyright 1983,
 Carnegie Mellon University). Gaussian is a federally registered
 trademark of Gaussian, Inc.
  
 This software contains proprietary and confidential information,
 including trade secrets, belonging to Gaussian, Inc.
  
 This software is provided under written license and may be
 used, copied, transmitted, or stored only in accord with that
 written license.
  
 The following legend is applicable only to US Government
 contracts under FAR:
  
                    RESTRICTED RIGHTS LEGEND
  
 Use, reproduction and disclosure by the US Government is
 subject to restrictions as set forth in subparagraphs (a)
 and (c) of the Commercial Computer Software - Restricted
 Rights clause in FAR 52.227-19.
  
 Gaussian, Inc.
 340 Quinnipiac St., Bldg. 40, Wallingford CT 06492
  
  
 ---------------------------------------------------------------
 Warning -- This program may not be used in any manner that
 competes with the business of Gaussian, Inc. or will provide
 assistance to any competitor of Gaussian, Inc.  The licensee
 of this program is prohibited from giving any competitor of
 Gaussian, Inc. access to this program.  By using this program,
 the user acknowledges that Gaussian, Inc. is engaged in the
 business of creating and licensing software in the field of
 computational chemistry and represents and warrants to the
 licensee that it is not a competitor of Gaussian, Inc. and that
 it will not use this program in any manner prohibited above.
 ---------------------------------------------------------------
  

 Cite this work as:
 Gaussian 09, Revision C.01,
 M. J. Frisch, G. W. Trucks, H. B. Schlegel, G. E. Scuseria, 
 M. A. Robb, J. R. Cheeseman, G. Scalmani, V. Barone, B. Mennucci, 
 G. A. Petersson, H. Nakatsuji, M. Caricato, X. Li, H. P. Hratchian, 
 A. F. Izmaylov, J. Bloino, G. Zheng, J. L. Sonnenberg, M. Hada, 
 M. Ehara, K. Toyota, R. Fukuda, J. Hasegawa, M. Ishida, T. Nakajima, 
 Y. Honda, O. Kitao, H. Nakai, T. Vreven, J. A. Montgomery, Jr., 
 J. E. Peralta, F. Ogliaro, M. Bearpark, J. J. Heyd, E. Brothers, 
 K. N. Kudin, V. N. Staroverov, T. Keith, R. Kobayashi, J. Normand, 
 K. Raghavachari, A. Rendell, J. C. Burant, S. S. Iyengar, J. Tomasi, 
 M. Cossi, N. Rega, J. M. Millam, M. Klene, J. E. Knox, J. B. Cross, 
 V. Bakken, C. Adamo, J. Jaramillo, R. Gomperts, R. E. Stratmann, 
 O. Yazyev, A. J. Austin, R. Cammi, C. Pomelli, J. W. Ochterski, 
 R. L. Martin, K. Morokuma, V. G. Zakrzewski, G. A. Voth, 
 P. Salvador, J. J. Dannenberg, S. Dapprich, A. D. Daniels, 
 O. Farkas, J. B. Foresman, J. V. Ortiz, J. Cioslowski, 
 and D. J. Fox, Gaussian, Inc., Wallingford CT, 2010.
 
 ******************************************
 Gaussian 09:  EM64L-G09RevC.01 23-Sep-2011
                10-Aug-2018 
 ******************************************
 %nproc=2
 Will use up to    2 processors via shared memory.
 %mem=256MB
 %RWF=bm3.rwf
 %chk=bm3196
 %NoSave
 --------------------------------------
 #SP PBE1PBE/Def2TZVP geom=connectivity
 --------------------------------------
 1/38=1,57=2/1;
 2/12=2,17=6,18=5,40=1/2;
 3/5=44,7=101,11=2,16=1,25=1,30=1,74=-13/1,2,3;
 4//1;
 5/5=2,38=5/2;
 6/7=2,8=2,9=2,10=2,28=1/1;
 99/5=1,9=1/99;
 --------------
 Structure: 196
 --------------
 Charge =  0 Multiplicity = 1
 Symbolic Z-Matrix:
 H                     0.        0.        0. 
 C                     1.093     0.        0. 
 C                     1.655     1.421     0. 
 H                     1.41     -0.56     -0.885 
 H                     1.424    -0.557     0.88 
 H                     1.308     1.969    -0.883 
 Si                    3.513     1.515     0.035 
 H                     1.282     1.975     0.868 
 O                     4.237     0.756    -1.295 
 O                     3.968     0.824     1.454 
 H                     4.029     2.906    -0.04 
 H                     3.998    -0.155    -1.469 
 C                     5.301     0.766     1.905 
 H                     5.308     0.322     2.902 
 H                     5.747     1.766     1.967 
 H                     5.921     0.153     1.244 
 
                          Input orientation:                          
 ---------------------------------------------------------------------
 Center     Atomic      Atomic             Coordinates (Angstroms)
 Number     Number       Type             X           Y           Z
 ---------------------------------------------------------------------
      1          1           0        0.000000    0.000000    0.000000
      2          6           0        1.093000    0.000000    0.000000
      3          6           0        1.655000    1.421000    0.000000
      4          1           0        1.410000   -0.560000   -0.885000
      5          1           0        1.424000   -0.557000    0.880000
      6          1           0        1.308000    1.969000   -0.883000
      7         14           0        3.513000    1.515000    0.035000
      8          1           0        1.282000    1.975000    0.868000
      9          8           0        4.237000    0.756000   -1.295000
     10          8           0        3.968000    0.824000    1.454000
     11          1           0        4.029000    2.906000   -0.040000
     12          1           0        3.998000   -0.155000   -1.469000
     13          6           0        5.301000    0.766000    1.905000
     14          1           0        5.308000    0.322000    2.902000
     15          1           0        5.747000    1.766000    1.967000
     16          1           0        5.921000    0.153000    1.244000
 ---------------------------------------------------------------------
                    Distance matrix (angstroms):
                    1          2          3          4          5
     1  H    0.000000
     2  C    1.093000   0.000000
     3  C    2.181345   1.528098   0.000000
     4  H    1.756395   1.094218   2.183486   0.000000
     5  H    1.764207   1.092799   2.177210   1.765058   0.000000
     6  H    2.523393   2.168611   1.095629   2.531057   3.082580
     7  Si   3.825914   2.855320   1.860706   3.094291   3.061230
     8  H    2.509497   2.165588   1.095203   3.084740   2.536007
     9  O    4.494522   3.483288   2.964114   3.145137   3.790457
    10  O    4.305591   3.325465   2.796515   3.732257   2.951029
    11  H    4.967824   4.131166   2.800482   4.425646   4.429988
    12  H    4.262158   3.258989   3.182984   2.683808   3.507831
    13  C    5.684750   4.682205   4.165497   4.968124   4.222805
    14  H    6.058065   5.127525   4.793101   5.505788   4.466160
    15  H    6.325809   5.352342   4.553304   5.688036   5.026552
    16  H    6.052205   4.988039   4.621051   5.038862   4.567232
                    6          7          8          9         10
     6  H    0.000000
     7  Si   2.431227   0.000000
     8  H    1.751203   2.425459   0.000000
     9  O    3.196898   1.693859   3.859606   0.000000
    10  O    3.721316   1.642579   2.980401   2.762967   0.000000
    11  H    2.998743   1.485517   3.039282   2.498157   2.563295
    12  H    3.477193   2.299161   4.168348   0.957767   3.082737
    13  C    5.016393   2.693482   4.323125   3.372269   1.408423
    14  H    5.747942   3.586776   4.803982   4.353183   2.035757
    15  H    5.279056   2.964183   4.603011   3.733744   2.077348
    16  H    5.394604   3.019137   4.998138   3.105799   2.075705
                   11         12         13         14         15
    11  H    0.000000
    12  H    3.378272   0.000000
    13  C    3.159210   3.732282   0.000000
    14  H    4.119255   4.587948   1.091418   0.000000
    15  H    2.877355   4.307591   1.096704   1.775410   0.000000
    16  H    3.578733   3.339635   1.094116   1.775752   1.776168
                   16
    16  H    0.000000
 Stoichiometry    C3H10O2Si
 Framework group  C1[X(C3H10O2Si)]
 Deg. of freedom    42
 Full point group                 C1      NOp   1
 Largest Abelian subgroup         C1      NOp   1
 Largest concise Abelian subgroup C1      NOp   1
                         Standard orientation:                         
 ---------------------------------------------------------------------
 Center     Atomic      Atomic             Coordinates (Angstroms)
 Number     Number       Type             X           Y           Z
 ---------------------------------------------------------------------
      1          1           0       -3.231496   -1.187781   -0.517851
      2          6           0       -2.235919   -0.761447   -0.665210
      3          6           0       -1.622627   -0.296502    0.654935
      4          1           0       -2.346870    0.065760   -1.372835
      5          1           0       -1.616455   -1.524537   -1.142880
      6          1           0       -2.258527    0.461504    1.125531
      7         14           0        0.090697    0.412828    0.501316
      8          1           0       -1.570022   -1.131215    1.362010
      9          8           0        0.155384    1.766836   -0.514378
     10          8           0        1.032645   -0.812542   -0.054804
     11          1           0        0.629463    0.922473    1.788466
     12          1           0       -0.198040    1.673440   -1.399638
     13          6           0        2.426017   -0.710512   -0.233009
     14          1           0        2.805982   -1.686255   -0.540817
     15          1           0        2.928814   -0.419689    0.697248
     16          1           0        2.678331    0.023131   -1.004499
 ---------------------------------------------------------------------
 Rotational constants (GHZ):      3.9706999      1.8966819      1.5708981
 Standard basis: def2TZVP (5D, 7F)
 There are   252 symmetry adapted basis functions of A   symmetry.
 Integral buffers will be    131072 words long.
 Raffenetti 2 integral format.
 Two-electron integral symmetry is turned on.
   252 basis functions,   404 primitive gaussians,   282 cartesian basis functions
    29 alpha electrons       29 beta electrons
       nuclear repulsion energy       328.0394881815 Hartrees.
 NAtoms=   16 NActive=   16 NUniq=   16 SFac= 1.00D+00 NAtFMM=   60 NAOKFM=F Big=F
 One-electron integrals computed using PRISM.
   1 Symmetry operations used in ECPInt.
 ECPInt:  NShTT=    5886 NPrTT=   17754 LenC2=    5780 LenP2D=   13904.
 LDataN:  DoStor=T MaxTD1= 6 Len=  172
 NBasis=   252 RedAO= T  NBF=   252
 NBsUse=   252 1.00D-06 NBFU=   252
 Harris functional with IExCor= 1009 diagonalized for initial guess.
 ExpMin= 7.01D-02 ExpMax= 4.48D+04 ExpMxC= 1.53D+03 IAcc=2 IRadAn=         4 AccDes= 0.00D+00
 HarFok:  IExCor= 1009 AccDes= 0.00D+00 IRadAn=         4 IDoV= 1
 ScaDFX=  1.000000  1.000000  1.000000  1.000000
 FoFCou: FMM=F IPFlag=           0 FMFlag=      100000 FMFlg1=           0
         NFxFlg=           0 DoJE=T BraDBF=F KetDBF=T FulRan=T
         Omega=  0.000000  0.000000  1.000000  0.000000  0.000000 ICntrl=     500 IOpCl=  0
         NMat0=    1 NMatS0=    1 NMatT0=    0 NMatD0=    1 NMtDS0=    0 NMtDT0=    0
         I1Cent=           4 NGrid=           0.
 Petite list used in FoFCou.
 Initial guess orbital symmetries:
       Occupied  (A) (A) (A) (A) (A) (A) (A) (A) (A) (A) (A) (A)
                 (A) (A) (A) (A) (A) (A) (A) (A) (A) (A) (A) (A)
                 (A) (A) (A) (A) (A)
       Virtual   (A) (A) (A) (A) (A) (A) (A) (A) (A) (A) (A) (A)
                 (A) (A) (A) (A) (A) (A) (A) (A) (A) (A) (A) (A)
                 (A) (A) (A) (A) (A) (A) (A) (A) (A) (A) (A) (A)
                 (A) (A) (A) (A) (A) (A) (A) (A) (A) (A) (A) (A)
                 (A) (A) (A) (A) (A) (A) (A) (A) (A) (A) (A) (A)
                 (A) (A) (A) (A) (A) (A) (A) (A) (A) (A) (A) (A)
                 (A) (A) (A) (A) (A) (A) (A) (A) (A) (A) (A) (A)
                 (A) (A) (A) (A) (A) (A) (A) (A) (A) (A) (A) (A)
                 (A) (A) (A) (A) (A) (A) (A) (A) (A) (A) (A) (A)
                 (A) (A) (A) (A) (A) (A) (A) (A) (A) (A) (A) (A)
                 (A) (A) (A) (A) (A) (A) (A) (A) (A) (A) (A) (A)
                 (A) (A) (A) (A) (A) (A) (A) (A) (A) (A) (A) (A)
                 (A) (A) (A) (A) (A) (A) (A) (A) (A) (A) (A) (A)
                 (A) (A) (A) (A) (A) (A) (A) (A) (A) (A) (A) (A)
                 (A) (A) (A) (A) (A) (A) (A) (A) (A) (A) (A) (A)
                 (A) (A) (A) (A) (A) (A) (A) (A) (A) (A) (A) (A)
                 (A) (A) (A) (A) (A) (A) (A) (A) (A) (A) (A) (A)
                 (A) (A) (A) (A) (A) (A) (A) (A) (A) (A) (A) (A)
                 (A) (A) (A) (A) (A) (A) (A)
 The electronic state of the initial guess is 1-A.
 Requested convergence on RMS density matrix=1.00D-08 within 128 cycles.
 Requested convergence on MAX density matrix=1.00D-06.
 Requested convergence on             energy=1.00D-06.
 No special actions if energy rises.
 Integral accuracy reduced to 1.0D-05 until final iterations.
 Initial convergence to 1.0D-05 achieved.  Increase integral accuracy.
 SCF Done:  E(RPBE1PBE) =  -560.060233828     A.U. after   12 cycles
             Convg  =    0.7613D-08             -V/T =  2.0034

 **********************************************************************

            Population analysis using the SCF density.

 **********************************************************************

 Orbital symmetries:
       Occupied  (A) (A) (A) (A) (A) (A) (A) (A) (A) (A) (A) (A)
                 (A) (A) (A) (A) (A) (A) (A) (A) (A) (A) (A) (A)
                 (A) (A) (A) (A) (A)
       Virtual   (A) (A) (A) (A) (A) (A) (A) (A) (A) (A) (A) (A)
                 (A) (A) (A) (A) (A) (A) (A) (A) (A) (A) (A) (A)
                 (A) (A) (A) (A) (A) (A) (A) (A) (A) (A) (A) (A)
                 (A) (A) (A) (A) (A) (A) (A) (A) (A) (A) (A) (A)
                 (A) (A) (A) (A) (A) (A) (A) (A) (A) (A) (A) (A)
                 (A) (A) (A) (A) (A) (A) (A) (A) (A) (A) (A) (A)
                 (A) (A) (A) (A) (A) (A) (A) (A) (A) (A) (A) (A)
                 (A) (A) (A) (A) (A) (A) (A) (A) (A) (A) (A) (A)
                 (A) (A) (A) (A) (A) (A) (A) (A) (A) (A) (A) (A)
                 (A) (A) (A) (A) (A) (A) (A) (A) (A) (A) (A) (A)
                 (A) (A) (A) (A) (A) (A) (A) (A) (A) (A) (A) (A)
                 (A) (A) (A) (A) (A) (A) (A) (A) (A) (A) (A) (A)
                 (A) (A) (A) (A) (A) (A) (A) (A) (A) (A) (A) (A)
                 (A) (A) (A) (A) (A) (A) (A) (A) (A) (A) (A) (A)
                 (A) (A) (A) (A) (A) (A) (A) (A) (A) (A) (A) (A)
                 (A) (A) (A) (A) (A) (A) (A) (A) (A) (A) (A) (A)
                 (A) (A) (A) (A) (A) (A) (A) (A) (A) (A) (A) (A)
                 (A) (A) (A) (A) (A) (A) (A) (A) (A) (A) (A) (A)
                 (A) (A) (A) (A) (A) (A) (A)
 The electronic state is 1-A.
 Alpha  occ. eigenvalues --  -66.25925 -19.20234 -19.19961 -10.26531 -10.21777
 Alpha  occ. eigenvalues --  -10.21052  -5.33479  -3.67005  -3.66899  -3.66753
 Alpha  occ. eigenvalues --   -1.04359  -1.01494  -0.78308  -0.70627  -0.64141
 Alpha  occ. eigenvalues --   -0.56147  -0.51002  -0.46936  -0.46694  -0.45991
 Alpha  occ. eigenvalues --   -0.43633  -0.41106  -0.38571  -0.37258  -0.36441
 Alpha  occ. eigenvalues --   -0.35259  -0.31919  -0.30545  -0.29848
 Alpha virt. eigenvalues --    0.02300   0.05385   0.05943   0.07934   0.08938
 Alpha virt. eigenvalues --    0.10091   0.10725   0.11252   0.12253   0.13454
 Alpha virt. eigenvalues --    0.13823   0.15178   0.15924   0.16374   0.19203
 Alpha virt. eigenvalues --    0.21239   0.21985   0.23357   0.24528   0.24952
 Alpha virt. eigenvalues --    0.26640   0.28156   0.28869   0.29488   0.31125
 Alpha virt. eigenvalues --    0.32708   0.36629   0.39320   0.39973   0.40639
 Alpha virt. eigenvalues --    0.41878   0.42467   0.44070   0.45216   0.45514
 Alpha virt. eigenvalues --    0.46130   0.47411   0.47853   0.49886   0.50356
 Alpha virt. eigenvalues --    0.50902   0.53321   0.55360   0.56792   0.60220
 Alpha virt. eigenvalues --    0.60743   0.62861   0.65187   0.65921   0.67994
 Alpha virt. eigenvalues --    0.73736   0.74240   0.74990   0.77684   0.80680
 Alpha virt. eigenvalues --    0.82757   0.83766   0.86308   0.87892   0.91827
 Alpha virt. eigenvalues --    0.93053   0.95461   0.96715   0.99335   1.00744
 Alpha virt. eigenvalues --    1.03945   1.06865   1.07192   1.08865   1.11680
 Alpha virt. eigenvalues --    1.12150   1.12683   1.15534   1.18747   1.20806
 Alpha virt. eigenvalues --    1.24569   1.28154   1.32246   1.36358   1.40927
 Alpha virt. eigenvalues --    1.41816   1.46471   1.47234   1.49691   1.52378
 Alpha virt. eigenvalues --    1.53047   1.54387   1.55037   1.56243   1.57699
 Alpha virt. eigenvalues --    1.59379   1.62452   1.63325   1.63485   1.65673
 Alpha virt. eigenvalues --    1.68062   1.71388   1.74859   1.77015   1.79039
 Alpha virt. eigenvalues --    1.80528   1.83047   1.86216   1.88787   1.91448
 Alpha virt. eigenvalues --    1.94884   1.95539   1.99540   2.00878   2.03243
 Alpha virt. eigenvalues --    2.04926   2.07914   2.10136   2.12044   2.14635
 Alpha virt. eigenvalues --    2.17138   2.18238   2.26444   2.28607   2.30025
 Alpha virt. eigenvalues --    2.32213   2.32965   2.33300   2.35146   2.35597
 Alpha virt. eigenvalues --    2.36026   2.40210   2.43525   2.47210   2.48985
 Alpha virt. eigenvalues --    2.50936   2.51542   2.54633   2.56056   2.58199
 Alpha virt. eigenvalues --    2.59432   2.61228   2.65088   2.66898   2.70808
 Alpha virt. eigenvalues --    2.72713   2.76831   2.80247   2.82397   2.84271
 Alpha virt. eigenvalues --    2.85507   2.92914   2.93982   2.99862   3.00849
 Alpha virt. eigenvalues --    3.05951   3.08988   3.10173   3.11404   3.14961
 Alpha virt. eigenvalues --    3.20511   3.22339   3.23065   3.26890   3.29834
 Alpha virt. eigenvalues --    3.31826   3.32612   3.36973   3.40195   3.42840
 Alpha virt. eigenvalues --    3.44421   3.45877   3.46381   3.53143   3.53800
 Alpha virt. eigenvalues --    3.58219   3.61084   3.62181   3.64993   3.76642
 Alpha virt. eigenvalues --    3.81157   3.86470   3.92537   3.95694   4.02914
 Alpha virt. eigenvalues --    4.18986   4.24084   4.24966   4.34138   4.36829
 Alpha virt. eigenvalues --    4.41617   4.46833   4.53308   4.57029   4.78576
 Alpha virt. eigenvalues --    5.15885   5.16264   5.17044   5.18250   5.26816
 Alpha virt. eigenvalues --    5.29292   5.38111   5.41521   5.45464   5.50447
 Alpha virt. eigenvalues --    5.79626   5.86364   6.03424   6.22583   6.40964
 Alpha virt. eigenvalues --    6.41421   6.52745   6.58062   6.59635   6.63735
 Alpha virt. eigenvalues --    6.64957   6.77708   6.81633   6.96209   7.05672
 Alpha virt. eigenvalues --    7.14875   7.21539  11.85877  22.36978  22.40850
 Alpha virt. eigenvalues --   22.45100  43.59605  43.94149
          Condensed to atoms (all electrons):
              1          2          3          4          5          6
     1  H    0.551464   0.407843  -0.033567  -0.025277  -0.024687  -0.006881
     2  C    0.407843   4.940580   0.315727   0.400476   0.412614  -0.028455
     3  C   -0.033567   0.315727   5.025572  -0.044156  -0.039284   0.387677
     4  H   -0.025277   0.400476  -0.044156   0.582814  -0.027177  -0.004961
     5  H   -0.024687   0.412614  -0.039284  -0.027177   0.533900   0.007704
     6  H   -0.006881  -0.028455   0.387677  -0.004961   0.007704   0.576930
     7  Si   0.007859  -0.020738   0.420753  -0.005031  -0.008677  -0.029257
     8  H   -0.006794  -0.028457   0.370606   0.008849  -0.004080  -0.026664
     9  O    0.000016  -0.003751  -0.035762   0.004895  -0.000376  -0.000897
    10  O    0.000019  -0.005072  -0.031263   0.000420   0.007611   0.001306
    11  H   -0.000116   0.001710  -0.034490   0.000209   0.000402   0.001284
    12  H   -0.000076   0.000161  -0.001983   0.001982   0.000013   0.000061
    13  C    0.000011  -0.000110   0.001847   0.000105  -0.000048  -0.000126
    14  H   -0.000004   0.000224  -0.000409  -0.000003  -0.000163   0.000000
    15  H    0.000001  -0.000044  -0.000010  -0.000002   0.000082   0.000005
    16  H    0.000001  -0.000119   0.000803  -0.000016   0.000007   0.000014
              7          8          9         10         11         12
     1  H    0.007859  -0.006794   0.000016   0.000019  -0.000116  -0.000076
     2  C   -0.020738  -0.028457  -0.003751  -0.005072   0.001710   0.000161
     3  C    0.420753   0.370606  -0.035762  -0.031263  -0.034490  -0.001983
     4  H   -0.005031   0.008849   0.004895   0.000420   0.000209   0.001982
     5  H   -0.008677  -0.004080  -0.000376   0.007611   0.000402   0.000013
     6  H   -0.029257  -0.026664  -0.000897   0.001306   0.001284   0.000061
     7  Si  11.901604  -0.013787   0.450794   0.449009   0.391278  -0.026717
     8  H   -0.013787   0.577222   0.001818   0.001835   0.000817  -0.000050
     9  O    0.450794   0.001818   7.884769  -0.033146  -0.015615   0.297719
    10  O    0.449009   0.001835  -0.033146   7.838745  -0.026050  -0.000892
    11  H    0.391278   0.000817  -0.015615  -0.026050   0.725642   0.003820
    12  H   -0.026717  -0.000050   0.297719  -0.000892   0.003820   0.408408
    13  C   -0.050533   0.000091  -0.007095   0.261584   0.002453   0.000626
    14  H    0.007909   0.000000   0.000106  -0.040941  -0.000225   0.000019
    15  H   -0.017706  -0.000022  -0.000438  -0.042538   0.009947  -0.000012
    16  H   -0.004148  -0.000017   0.006869  -0.043575  -0.001927   0.000252
             13         14         15         16
     1  H    0.000011  -0.000004   0.000001   0.000001
     2  C   -0.000110   0.000224  -0.000044  -0.000119
     3  C    0.001847  -0.000409  -0.000010   0.000803
     4  H    0.000105  -0.000003  -0.000002  -0.000016
     5  H   -0.000048  -0.000163   0.000082   0.000007
     6  H   -0.000126   0.000000   0.000005   0.000014
     7  Si  -0.050533   0.007909  -0.017706  -0.004148
     8  H    0.000091   0.000000  -0.000022  -0.000017
     9  O   -0.007095   0.000106  -0.000438   0.006869
    10  O    0.261584  -0.040941  -0.042538  -0.043575
    11  H    0.002453  -0.000225   0.009947  -0.001927
    12  H    0.000626   0.000019  -0.000012   0.000252
    13  C    4.770872   0.401869   0.418015   0.412107
    14  H    0.401869   0.566335  -0.030398  -0.033309
    15  H    0.418015  -0.030398   0.592674  -0.047195
    16  H    0.412107  -0.033309  -0.047195   0.588649
 Mulliken atomic charges:
              1
     1  H    0.130191
     2  C   -0.392590
     3  C   -0.302060
     4  H    0.106872
     5  H    0.142160
     6  H    0.122261
     7  Si   0.547386
     8  H    0.118632
     9  O   -0.549905
    10  O   -0.337049
    11  H   -0.059139
    12  H    0.316669
    13  C   -0.211666
    14  H    0.128992
    15  H    0.117641
    16  H    0.121605
 Sum of Mulliken atomic charges =   0.00000
 Mulliken charges with hydrogens summed into heavy atoms:
              1
     2  C   -0.013368
     3  C   -0.061167
     7  Si   0.488247
     9  O   -0.233236
    10  O   -0.337049
    13  C    0.156572
 Sum of Mulliken charges with hydrogens summed into heavy atoms =   0.00000
 Electronic spatial extent (au):  <R**2>=            872.1974
 Charge=              0.0000 electrons
 Dipole moment (field-independent basis, Debye):
    X=             -0.2875    Y=             -0.7182    Z=             -0.7887  Tot=              1.1048
 Quadrupole moment (field-independent basis, Debye-Ang):
   XX=            -41.0499   YY=            -49.5595   ZZ=            -42.8457
   XY=             -1.6892   XZ=             -0.2150   YZ=             -1.7672
 Traceless Quadrupole moment (field-independent basis, Debye-Ang):
   XX=              3.4352   YY=             -5.0745   ZZ=              1.6393
   XY=             -1.6892   XZ=             -0.2150   YZ=             -1.7672
 Octapole moment (field-independent basis, Debye-Ang**2):
  XXX=             14.3938  YYY=             -7.1445  ZZZ=            -10.3018  XYY=             -1.0286
  XXY=             -2.2452  XXZ=             -1.3209  XZZ=              0.6682  YZZ=              5.1488
  YYZ=             -3.6360  XYZ=              1.9050
 Hexadecapole moment (field-independent basis, Debye-Ang**3):
 XXXX=           -703.8846 YYYY=           -297.9145 ZZZZ=           -168.6632 XXXY=            -12.3407
 XXXZ=             -6.8045 YYYX=            -12.2401 YYYZ=             -7.5648 ZZZX=             -2.8609
 ZZZY=            -19.0877 XXYY=           -163.1797 XXZZ=           -150.9820 YYZZ=            -65.8315
 XXYZ=             -0.6453 YYXZ=             -1.3775 ZZXY=             -4.9557
 N-N= 3.280394881815D+02 E-N=-1.979973620400D+03  KE= 5.581596097548D+02
 1\1\GINC-TARSUS2\SP\RPBE1PBE\def2TZVP\C3H10O2Si1\RENATO\10-Aug-2018\0\
 \#SP PBE1PBE/Def2TZVP geom=connectivity\\Structure: 196\\0,1\H,0,0.,0.
 ,0.\C,0,1.093,0.,0.\C,0,1.655,1.421,0.\H,0,1.41,-0.56,-0.885\H,0,1.424
 ,-0.557,0.88\H,0,1.308,1.969,-0.883\Si,0,3.513,1.515,0.035\H,0,1.282,1
 .975,0.868\O,0,4.237,0.756,-1.295\O,0,3.968,0.824,1.454\H,0,4.029,2.90
 6,-0.04\H,0,3.998,-0.155,-1.469\C,0,5.301,0.766,1.905\H,0,5.308,0.322,
 2.902\H,0,5.747,1.766,1.967\H,0,5.921,0.153,1.244\\Version=EM64L-G09Re
 vC.01\State=1-A\HF=-560.0602338\RMSD=7.613e-09\Dipole=-0.1714273,-0.36
 17491,0.1693337\Quadrupole=0.8521784,0.5765201,-1.4286985,-1.0970203,2
 .85387,1.8846632\PG=C01 [X(C3H10O2Si1)]\\@


 IF IT'S NOT TRUE, IT'S WELL INVENTED -- DANTE
 Job cpu time:  0 days  0 hours 12 minutes 35.7 seconds.
 File lengths (MBytes):  RWF=     40 Int=      0 D2E=      0 Chk=      3 Scr=      1
 Normal termination of Gaussian 09 at Fri Aug 10 01:29:36 2018.
