 Entering Gaussian System, Link 0=g09
 Initial command:
 /usr/local/gaussian09/g09/l1.exe /scratch/renato/Gau-11523.inp -scrdir=/scratch/renato/
 Entering Link 1 = /usr/local/gaussian09/g09/l1.exe PID=     11525.
  
 Copyright (c) 1988,1990,1992,1993,1995,1998,2003,2009,2011,
            Gaussian, Inc.  All Rights Reserved.
  
 This is part of the Gaussian(R) 09 program.  It is based on
 the Gaussian(R) 03 system (copyright 2003, Gaussian, Inc.),
 the Gaussian(R) 98 system (copyright 1998, Gaussian, Inc.),
 the Gaussian(R) 94 system (copyright 1995, Gaussian, Inc.),
 the Gaussian 92(TM) system (copyright 1992, Gaussian, Inc.),
 the Gaussian 90(TM) system (copyright 1990, Gaussian, Inc.),
 the Gaussian 88(TM) system (copyright 1988, Gaussian, Inc.),
 the Gaussian 86(TM) system (copyright 1986, Carnegie Mellon
 University), and the Gaussian 82(TM) system (copyright 1983,
 Carnegie Mellon University). Gaussian is a federally registered
 trademark of Gaussian, Inc.
  
 This software contains proprietary and confidential information,
 including trade secrets, belonging to Gaussian, Inc.
  
 This software is provided under written license and may be
 used, copied, transmitted, or stored only in accord with that
 written license.
  
 The following legend is applicable only to US Government
 contracts under FAR:
  
                    RESTRICTED RIGHTS LEGEND
  
 Use, reproduction and disclosure by the US Government is
 subject to restrictions as set forth in subparagraphs (a)
 and (c) of the Commercial Computer Software - Restricted
 Rights clause in FAR 52.227-19.
  
 Gaussian, Inc.
 340 Quinnipiac St., Bldg. 40, Wallingford CT 06492
  
  
 ---------------------------------------------------------------
 Warning -- This program may not be used in any manner that
 competes with the business of Gaussian, Inc. or will provide
 assistance to any competitor of Gaussian, Inc.  The licensee
 of this program is prohibited from giving any competitor of
 Gaussian, Inc. access to this program.  By using this program,
 the user acknowledges that Gaussian, Inc. is engaged in the
 business of creating and licensing software in the field of
 computational chemistry and represents and warrants to the
 licensee that it is not a competitor of Gaussian, Inc. and that
 it will not use this program in any manner prohibited above.
 ---------------------------------------------------------------
  

 Cite this work as:
 Gaussian 09, Revision C.01,
 M. J. Frisch, G. W. Trucks, H. B. Schlegel, G. E. Scuseria, 
 M. A. Robb, J. R. Cheeseman, G. Scalmani, V. Barone, B. Mennucci, 
 G. A. Petersson, H. Nakatsuji, M. Caricato, X. Li, H. P. Hratchian, 
 A. F. Izmaylov, J. Bloino, G. Zheng, J. L. Sonnenberg, M. Hada, 
 M. Ehara, K. Toyota, R. Fukuda, J. Hasegawa, M. Ishida, T. Nakajima, 
 Y. Honda, O. Kitao, H. Nakai, T. Vreven, J. A. Montgomery, Jr., 
 J. E. Peralta, F. Ogliaro, M. Bearpark, J. J. Heyd, E. Brothers, 
 K. N. Kudin, V. N. Staroverov, T. Keith, R. Kobayashi, J. Normand, 
 K. Raghavachari, A. Rendell, J. C. Burant, S. S. Iyengar, J. Tomasi, 
 M. Cossi, N. Rega, J. M. Millam, M. Klene, J. E. Knox, J. B. Cross, 
 V. Bakken, C. Adamo, J. Jaramillo, R. Gomperts, R. E. Stratmann, 
 O. Yazyev, A. J. Austin, R. Cammi, C. Pomelli, J. W. Ochterski, 
 R. L. Martin, K. Morokuma, V. G. Zakrzewski, G. A. Voth, 
 P. Salvador, J. J. Dannenberg, S. Dapprich, A. D. Daniels, 
 O. Farkas, J. B. Foresman, J. V. Ortiz, J. Cioslowski, 
 and D. J. Fox, Gaussian, Inc., Wallingford CT, 2010.
 
 ******************************************
 Gaussian 09:  EM64L-G09RevC.01 23-Sep-2011
                10-Aug-2018 
 ******************************************
 %nproc=2
 Will use up to    2 processors via shared memory.
 %mem=256MB
 %RWF=bm3.rwf
 %chk=bm3167
 %NoSave
 --------------------------------------
 #SP PBE1PBE/Def2TZVP geom=connectivity
 --------------------------------------
 1/38=1,57=2/1;
 2/12=2,17=6,18=5,40=1/2;
 3/5=44,7=101,11=2,16=1,25=1,30=1,74=-13/1,2,3;
 4//1;
 5/5=2,38=5/2;
 6/7=2,8=2,9=2,10=2,28=1/1;
 99/5=1,9=1/99;
 --------------
 Structure: 167
 --------------
 Charge =  0 Multiplicity = 1
 Symbolic Z-Matrix:
 H                     0.        0.        0. 
 C                     1.093     0.        0. 
 C                     1.655     1.421     0. 
 H                     1.41     -0.56     -0.885 
 H                     1.424    -0.557     0.88 
 H                     1.308     1.969    -0.883 
 Si                    3.513     1.515     0.035 
 H                     1.282     1.975     0.868 
 O                     4.212     0.782    -1.249 
 O                     3.968     0.824     1.454 
 H                     4.029     2.906    -0.04 
 H                     3.973    -0.129    -1.423 
 C                     5.301     0.766     1.905 
 H                     5.308     0.322     2.902 
 H                     5.747     1.766     1.967 
 H                     5.921     0.153     1.244 
 
                          Input orientation:                          
 ---------------------------------------------------------------------
 Center     Atomic      Atomic             Coordinates (Angstroms)
 Number     Number       Type             X           Y           Z
 ---------------------------------------------------------------------
      1          1           0        0.000000    0.000000    0.000000
      2          6           0        1.093000    0.000000    0.000000
      3          6           0        1.655000    1.421000    0.000000
      4          1           0        1.410000   -0.560000   -0.885000
      5          1           0        1.424000   -0.557000    0.880000
      6          1           0        1.308000    1.969000   -0.883000
      7         14           0        3.513000    1.515000    0.035000
      8          1           0        1.282000    1.975000    0.868000
      9          8           0        4.212000    0.782000   -1.249000
     10          8           0        3.968000    0.824000    1.454000
     11          1           0        4.029000    2.906000   -0.040000
     12          1           0        3.973000   -0.129000   -1.423000
     13          6           0        5.301000    0.766000    1.905000
     14          1           0        5.308000    0.322000    2.902000
     15          1           0        5.747000    1.766000    1.967000
     16          1           0        5.921000    0.153000    1.244000
 ---------------------------------------------------------------------
                    Distance matrix (angstroms):
                    1          2          3          4          5
     1  H    0.000000
     2  C    1.093000   0.000000
     3  C    2.181345   1.528098   0.000000
     4  H    1.756395   1.094218   2.183486   0.000000
     5  H    1.764207   1.092799   2.177210   1.765058   0.000000
     6  H    2.523393   2.168611   1.095629   2.531057   3.082580
     7  Si   3.825914   2.855320   1.860706   3.094291   3.061230
     8  H    2.509497   2.165588   1.095203   3.084740   2.536007
     9  O    4.462339   3.449592   2.916603   3.128045   3.754798
    10  O    4.305591   3.325465   2.796515   3.732257   2.951029
    11  H    4.967824   4.131166   2.800482   4.425646   4.429988
    12  H    4.222120   3.214960   3.130583   2.654086   3.461848
    13  C    5.684750   4.682205   4.165497   4.968124   4.222805
    14  H    6.058065   5.127525   4.793101   5.505788   4.466160
    15  H    6.325809   5.352342   4.553304   5.688036   5.026552
    16  H    6.052205   4.988039   4.621051   5.038862   4.567232
                    6          7          8          9         10
     6  H    0.000000
     7  Si   2.431227   0.000000
     8  H    1.751203   2.425459   0.000000
     9  O    3.158503   1.635404   3.806552   0.000000
    10  O    3.721316   1.642579   2.980401   2.714316   0.000000
    11  H    2.998743   1.485517   3.039282   2.450826   2.563295
    12  H    3.434447   2.245017   4.113025   0.957767   3.030736
    13  C    5.016393   2.693482   4.323125   3.336749   1.408423
    14  H    5.747942   3.586776   4.803982   4.317825   2.035757
    15  H    5.279056   2.964183   4.603011   3.696909   2.077348
    16  H    5.394604   3.019137   4.998138   3.087292   2.075705
                   11         12         13         14         15
    11  H    0.000000
    12  H    3.335723   0.000000
    13  C    3.159210   3.693263   0.000000
    14  H    4.119255   4.548764   1.091418   0.000000
    15  H    2.877355   4.269684   1.096704   1.775410   0.000000
    16  H    3.578733   3.314682   1.094116   1.775752   1.776168
                   16
    16  H    0.000000
 Stoichiometry    C3H10O2Si
 Framework group  C1[X(C3H10O2Si)]
 Deg. of freedom    42
 Full point group                 C1      NOp   1
 Largest Abelian subgroup         C1      NOp   1
 Largest concise Abelian subgroup C1      NOp   1
                         Standard orientation:                         
 ---------------------------------------------------------------------
 Center     Atomic      Atomic             Coordinates (Angstroms)
 Number     Number       Type             X           Y           Z
 ---------------------------------------------------------------------
      1          1           0       -3.230277   -1.199058   -0.485099
      2          6           0       -2.235153   -0.776581   -0.646005
      3          6           0       -1.621749   -0.270482    0.658864
      4          1           0       -2.347156    0.028250   -1.378820
      5          1           0       -1.615182   -1.553513   -1.100122
      6          1           0       -2.258155    0.501134    1.106076
      7         14           0        0.090857    0.435314    0.482638
      8          1           0       -1.568087   -1.082885    1.391388
      9          8           0        0.151720    1.711568   -0.538154
     10          8           0        1.033706   -0.805810   -0.035741
     11          1           0        0.629680    0.985003    1.753179
     12          1           0       -0.201979    1.590524   -1.419949
     13          6           0        2.426911   -0.708073   -0.217624
     14          1           0        2.807648   -1.692521   -0.495282
     15          1           0        2.929820   -0.388169    0.702976
     16          1           0        2.678232    0.001593   -1.011539
 ---------------------------------------------------------------------
 Rotational constants (GHZ):      4.0797249      1.9013070      1.5845250
 Standard basis: def2TZVP (5D, 7F)
 There are   252 symmetry adapted basis functions of A   symmetry.
 Integral buffers will be    131072 words long.
 Raffenetti 2 integral format.
 Two-electron integral symmetry is turned on.
   252 basis functions,   404 primitive gaussians,   282 cartesian basis functions
    29 alpha electrons       29 beta electrons
       nuclear repulsion energy       330.0717160655 Hartrees.
 NAtoms=   16 NActive=   16 NUniq=   16 SFac= 1.00D+00 NAtFMM=   60 NAOKFM=F Big=F
 One-electron integrals computed using PRISM.
   1 Symmetry operations used in ECPInt.
 ECPInt:  NShTT=    5886 NPrTT=   17754 LenC2=    5782 LenP2D=   13920.
 LDataN:  DoStor=T MaxTD1= 6 Len=  172
 NBasis=   252 RedAO= T  NBF=   252
 NBsUse=   252 1.00D-06 NBFU=   252
 Harris functional with IExCor= 1009 diagonalized for initial guess.
 ExpMin= 7.01D-02 ExpMax= 4.48D+04 ExpMxC= 1.53D+03 IAcc=2 IRadAn=         4 AccDes= 0.00D+00
 HarFok:  IExCor= 1009 AccDes= 0.00D+00 IRadAn=         4 IDoV= 1
 ScaDFX=  1.000000  1.000000  1.000000  1.000000
 FoFCou: FMM=F IPFlag=           0 FMFlag=      100000 FMFlg1=           0
         NFxFlg=           0 DoJE=T BraDBF=F KetDBF=T FulRan=T
         Omega=  0.000000  0.000000  1.000000  0.000000  0.000000 ICntrl=     500 IOpCl=  0
         NMat0=    1 NMatS0=    1 NMatT0=    0 NMatD0=    1 NMtDS0=    0 NMtDT0=    0
         I1Cent=           4 NGrid=           0.
 Petite list used in FoFCou.
 Initial guess orbital symmetries:
       Occupied  (A) (A) (A) (A) (A) (A) (A) (A) (A) (A) (A) (A)
                 (A) (A) (A) (A) (A) (A) (A) (A) (A) (A) (A) (A)
                 (A) (A) (A) (A) (A)
       Virtual   (A) (A) (A) (A) (A) (A) (A) (A) (A) (A) (A) (A)
                 (A) (A) (A) (A) (A) (A) (A) (A) (A) (A) (A) (A)
                 (A) (A) (A) (A) (A) (A) (A) (A) (A) (A) (A) (A)
                 (A) (A) (A) (A) (A) (A) (A) (A) (A) (A) (A) (A)
                 (A) (A) (A) (A) (A) (A) (A) (A) (A) (A) (A) (A)
                 (A) (A) (A) (A) (A) (A) (A) (A) (A) (A) (A) (A)
                 (A) (A) (A) (A) (A) (A) (A) (A) (A) (A) (A) (A)
                 (A) (A) (A) (A) (A) (A) (A) (A) (A) (A) (A) (A)
                 (A) (A) (A) (A) (A) (A) (A) (A) (A) (A) (A) (A)
                 (A) (A) (A) (A) (A) (A) (A) (A) (A) (A) (A) (A)
                 (A) (A) (A) (A) (A) (A) (A) (A) (A) (A) (A) (A)
                 (A) (A) (A) (A) (A) (A) (A) (A) (A) (A) (A) (A)
                 (A) (A) (A) (A) (A) (A) (A) (A) (A) (A) (A) (A)
                 (A) (A) (A) (A) (A) (A) (A) (A) (A) (A) (A) (A)
                 (A) (A) (A) (A) (A) (A) (A) (A) (A) (A) (A) (A)
                 (A) (A) (A) (A) (A) (A) (A) (A) (A) (A) (A) (A)
                 (A) (A) (A) (A) (A) (A) (A) (A) (A) (A) (A) (A)
                 (A) (A) (A) (A) (A) (A) (A) (A) (A) (A) (A) (A)
                 (A) (A) (A) (A) (A) (A) (A)
 The electronic state of the initial guess is 1-A.
 Requested convergence on RMS density matrix=1.00D-08 within 128 cycles.
 Requested convergence on MAX density matrix=1.00D-06.
 Requested convergence on             energy=1.00D-06.
 No special actions if energy rises.
 Integral accuracy reduced to 1.0D-05 until final iterations.
 Initial convergence to 1.0D-05 achieved.  Increase integral accuracy.
 SCF Done:  E(RPBE1PBE) =  -560.061216447     A.U. after   12 cycles
             Convg  =    0.7700D-08             -V/T =  2.0032

 **********************************************************************

            Population analysis using the SCF density.

 **********************************************************************

 Orbital symmetries:
       Occupied  (A) (A) (A) (A) (A) (A) (A) (A) (A) (A) (A) (A)
                 (A) (A) (A) (A) (A) (A) (A) (A) (A) (A) (A) (A)
                 (A) (A) (A) (A) (A)
       Virtual   (A) (A) (A) (A) (A) (A) (A) (A) (A) (A) (A) (A)
                 (A) (A) (A) (A) (A) (A) (A) (A) (A) (A) (A) (A)
                 (A) (A) (A) (A) (A) (A) (A) (A) (A) (A) (A) (A)
                 (A) (A) (A) (A) (A) (A) (A) (A) (A) (A) (A) (A)
                 (A) (A) (A) (A) (A) (A) (A) (A) (A) (A) (A) (A)
                 (A) (A) (A) (A) (A) (A) (A) (A) (A) (A) (A) (A)
                 (A) (A) (A) (A) (A) (A) (A) (A) (A) (A) (A) (A)
                 (A) (A) (A) (A) (A) (A) (A) (A) (A) (A) (A) (A)
                 (A) (A) (A) (A) (A) (A) (A) (A) (A) (A) (A) (A)
                 (A) (A) (A) (A) (A) (A) (A) (A) (A) (A) (A) (A)
                 (A) (A) (A) (A) (A) (A) (A) (A) (A) (A) (A) (A)
                 (A) (A) (A) (A) (A) (A) (A) (A) (A) (A) (A) (A)
                 (A) (A) (A) (A) (A) (A) (A) (A) (A) (A) (A) (A)
                 (A) (A) (A) (A) (A) (A) (A) (A) (A) (A) (A) (A)
                 (A) (A) (A) (A) (A) (A) (A) (A) (A) (A) (A) (A)
                 (A) (A) (A) (A) (A) (A) (A) (A) (A) (A) (A) (A)
                 (A) (A) (A) (A) (A) (A) (A) (A) (A) (A) (A) (A)
                 (A) (A) (A) (A) (A) (A) (A) (A) (A) (A) (A) (A)
                 (A) (A) (A) (A) (A) (A) (A)
 The electronic state is 1-A.
 Alpha  occ. eigenvalues --  -66.25217 -19.20322 -19.19954 -10.26428 -10.21720
 Alpha  occ. eigenvalues --  -10.20809  -5.32913  -3.66438  -3.66327  -3.66182
 Alpha  occ. eigenvalues --   -1.04513  -1.02483  -0.78180  -0.70492  -0.64032
 Alpha  occ. eigenvalues --   -0.56883  -0.51222  -0.46822  -0.46603  -0.45980
 Alpha  occ. eigenvalues --   -0.43547  -0.40901  -0.39242  -0.37208  -0.36678
 Alpha  occ. eigenvalues --   -0.35747  -0.31865  -0.30412  -0.29638
 Alpha virt. eigenvalues --    0.02297   0.05593   0.06070   0.08039   0.08984
 Alpha virt. eigenvalues --    0.10198   0.10891   0.11458   0.12322   0.13504
 Alpha virt. eigenvalues --    0.14121   0.15253   0.16137   0.16608   0.19321
 Alpha virt. eigenvalues --    0.21334   0.22086   0.23535   0.24627   0.24995
 Alpha virt. eigenvalues --    0.26649   0.28433   0.29252   0.29486   0.31395
 Alpha virt. eigenvalues --    0.32919   0.36639   0.39297   0.40104   0.40738
 Alpha virt. eigenvalues --    0.41949   0.42547   0.44161   0.45206   0.45675
 Alpha virt. eigenvalues --    0.46251   0.47477   0.47895   0.50020   0.50565
 Alpha virt. eigenvalues --    0.51341   0.53367   0.55343   0.56927   0.60051
 Alpha virt. eigenvalues --    0.60748   0.63007   0.65626   0.66168   0.67907
 Alpha virt. eigenvalues --    0.74002   0.74547   0.75302   0.78078   0.81111
 Alpha virt. eigenvalues --    0.83180   0.83892   0.86369   0.88089   0.91916
 Alpha virt. eigenvalues --    0.93135   0.95588   0.97007   0.99582   1.00860
 Alpha virt. eigenvalues --    1.04280   1.07053   1.08494   1.09198   1.11926
 Alpha virt. eigenvalues --    1.12357   1.12597   1.15674   1.19163   1.21197
 Alpha virt. eigenvalues --    1.24981   1.29093   1.32418   1.36655   1.41226
 Alpha virt. eigenvalues --    1.42138   1.46484   1.48014   1.49670   1.52562
 Alpha virt. eigenvalues --    1.53096   1.54544   1.55136   1.56393   1.57809
 Alpha virt. eigenvalues --    1.59408   1.62666   1.63668   1.64085   1.66013
 Alpha virt. eigenvalues --    1.68181   1.71975   1.75644   1.77981   1.79422
 Alpha virt. eigenvalues --    1.80671   1.83178   1.86116   1.88941   1.91942
 Alpha virt. eigenvalues --    1.95077   1.95865   1.99837   2.01924   2.04117
 Alpha virt. eigenvalues --    2.05519   2.08398   2.11015   2.12237   2.15150
 Alpha virt. eigenvalues --    2.17494   2.18800   2.26610   2.29165   2.30238
 Alpha virt. eigenvalues --    2.32847   2.33207   2.34366   2.35321   2.35777
 Alpha virt. eigenvalues --    2.36339   2.40478   2.44170   2.47588   2.49393
 Alpha virt. eigenvalues --    2.51101   2.51886   2.54803   2.56169   2.58319
 Alpha virt. eigenvalues --    2.59651   2.61366   2.65431   2.67160   2.71084
 Alpha virt. eigenvalues --    2.73029   2.77439   2.80526   2.83421   2.85029
 Alpha virt. eigenvalues --    2.86702   2.93387   2.94624   2.99989   3.02189
 Alpha virt. eigenvalues --    3.06984   3.09187   3.10829   3.11578   3.15216
 Alpha virt. eigenvalues --    3.21058   3.22464   3.23357   3.27618   3.30011
 Alpha virt. eigenvalues --    3.32110   3.32775   3.37391   3.40376   3.44477
 Alpha virt. eigenvalues --    3.44920   3.46112   3.47859   3.53443   3.54057
 Alpha virt. eigenvalues --    3.58451   3.62130   3.62393   3.65183   3.76811
 Alpha virt. eigenvalues --    3.81340   3.88509   3.92880   3.95937   4.03125
 Alpha virt. eigenvalues --    4.19165   4.24203   4.25193   4.34257   4.36970
 Alpha virt. eigenvalues --    4.41701   4.47007   4.53467   4.57241   4.78733
 Alpha virt. eigenvalues --    5.15561   5.16755   5.18180   5.18509   5.28789
 Alpha virt. eigenvalues --    5.29748   5.38747   5.41796   5.45605   5.50034
 Alpha virt. eigenvalues --    5.79978   5.86682   6.03676   6.23218   6.41876
 Alpha virt. eigenvalues --    6.42943   6.54005   6.59103   6.60477   6.66741
 Alpha virt. eigenvalues --    6.69147   6.79164   6.82079   6.96901   7.06302
 Alpha virt. eigenvalues --    7.15883   7.22941  11.94474  22.37077  22.40988
 Alpha virt. eigenvalues --   22.45392  43.62801  43.94593
          Condensed to atoms (all electrons):
              1          2          3          4          5          6
     1  H    0.550988   0.408356  -0.033416  -0.025314  -0.024564  -0.006870
     2  C    0.408356   4.940610   0.313672   0.400988   0.412973  -0.029404
     3  C   -0.033416   0.313672   5.036427  -0.044697  -0.039759   0.387149
     4  H   -0.025314   0.400988  -0.044697   0.586230  -0.027719  -0.004952
     5  H   -0.024564   0.412973  -0.039759  -0.027719   0.533552   0.007765
     6  H   -0.006870  -0.029404   0.387149  -0.004952   0.007765   0.578667
     7  Si   0.007680  -0.019651   0.422591  -0.005843  -0.008221  -0.028622
     8  H   -0.006904  -0.027876   0.369965   0.008887  -0.004088  -0.026348
     9  O    0.000001  -0.003145  -0.038528   0.004536  -0.000398  -0.001009
    10  O    0.000014  -0.004979  -0.031484   0.000435   0.007568   0.001299
    11  H   -0.000115   0.001811  -0.035218   0.000209   0.000411   0.001381
    12  H   -0.000091   0.000462  -0.002235   0.002155   0.000032   0.000072
    13  C    0.000010  -0.000080   0.001993   0.000095  -0.000071  -0.000127
    14  H   -0.000004   0.000223  -0.000418  -0.000003  -0.000163   0.000000
    15  H    0.000000  -0.000041  -0.000041  -0.000001   0.000083   0.000005
    16  H    0.000001  -0.000131   0.000827  -0.000014   0.000013   0.000014
              7          8          9         10         11         12
     1  H    0.007680  -0.006904   0.000001   0.000014  -0.000115  -0.000091
     2  C   -0.019651  -0.027876  -0.003145  -0.004979   0.001811   0.000462
     3  C    0.422591   0.369965  -0.038528  -0.031484  -0.035218  -0.002235
     4  H   -0.005843   0.008887   0.004536   0.000435   0.000209   0.002155
     5  H   -0.008221  -0.004088  -0.000398   0.007568   0.000411   0.000032
     6  H   -0.028622  -0.026348  -0.001009   0.001299   0.001381   0.000072
     7  Si  11.889078  -0.014099   0.472270   0.450534   0.391121  -0.028430
     8  H   -0.014099   0.578205   0.001943   0.001844   0.000827  -0.000030
     9  O    0.472270   0.001943   7.836962  -0.036047  -0.016408   0.300954
    10  O    0.450534   0.001844  -0.036047   7.844198  -0.026477  -0.001135
    11  H    0.391121   0.000827  -0.016408  -0.026477   0.732652   0.004274
    12  H   -0.028430  -0.000030   0.300954  -0.001135   0.004274   0.403776
    13  C   -0.049758   0.000078  -0.007052   0.262020   0.002444   0.000729
    14  H    0.007688   0.000000   0.000088  -0.041077  -0.000230   0.000020
    15  H   -0.017721  -0.000020  -0.000485  -0.042692   0.010204  -0.000029
    16  H   -0.004639  -0.000018   0.006743  -0.044111  -0.001996   0.000337
             13         14         15         16
     1  H    0.000010  -0.000004   0.000000   0.000001
     2  C   -0.000080   0.000223  -0.000041  -0.000131
     3  C    0.001993  -0.000418  -0.000041   0.000827
     4  H    0.000095  -0.000003  -0.000001  -0.000014
     5  H   -0.000071  -0.000163   0.000083   0.000013
     6  H   -0.000127   0.000000   0.000005   0.000014
     7  Si  -0.049758   0.007688  -0.017721  -0.004639
     8  H    0.000078   0.000000  -0.000020  -0.000018
     9  O   -0.007052   0.000088  -0.000485   0.006743
    10  O    0.262020  -0.041077  -0.042692  -0.044111
    11  H    0.002444  -0.000230   0.010204  -0.001996
    12  H    0.000729   0.000020  -0.000029   0.000337
    13  C    4.768189   0.402630   0.418081   0.412016
    14  H    0.402630   0.566709  -0.030399  -0.033764
    15  H    0.418081  -0.030399   0.593336  -0.047824
    16  H    0.412016  -0.033764  -0.047824   0.593355
 Mulliken atomic charges:
              1
     1  H    0.130227
     2  C   -0.393788
     3  C   -0.306827
     4  H    0.105008
     5  H    0.142588
     6  H    0.120980
     7  Si   0.536023
     8  H    0.117634
     9  O   -0.520424
    10  O   -0.339908
    11  H   -0.064890
    12  H    0.319139
    13  C   -0.211195
    14  H    0.128700
    15  H    0.117544
    16  H    0.119192
 Sum of Mulliken atomic charges =   0.00000
 Mulliken charges with hydrogens summed into heavy atoms:
              1
     2  C   -0.015965
     3  C   -0.068214
     7  Si   0.471133
     9  O   -0.201286
    10  O   -0.339908
    13  C    0.154240
 Sum of Mulliken charges with hydrogens summed into heavy atoms =   0.00000
 Electronic spatial extent (au):  <R**2>=            865.4768
 Charge=              0.0000 electrons
 Dipole moment (field-independent basis, Debye):
    X=             -0.2810    Y=             -0.5397    Z=             -0.9239  Tot=              1.1063
 Quadrupole moment (field-independent basis, Debye-Ang):
   XX=            -41.2125   YY=            -49.2032   ZZ=            -42.8610
   XY=             -1.6377   XZ=             -0.1985   YZ=             -1.7526
 Traceless Quadrupole moment (field-independent basis, Debye-Ang):
   XX=              3.2130   YY=             -4.7776   ZZ=              1.5646
   XY=             -1.6377   XZ=             -0.1985   YZ=             -1.7526
 Octapole moment (field-independent basis, Debye-Ang**2):
  XXX=             14.4362  YYY=             -6.1193  ZZZ=            -10.8509  XYY=             -0.8041
  XXY=             -2.0229  XXZ=             -1.2967  XZZ=              0.6135  YZZ=              4.9326
  YYZ=             -3.3572  XYZ=              1.8192
 Hexadecapole moment (field-independent basis, Debye-Ang**3):
 XXXX=           -705.9815 YYYY=           -289.2460 ZZZZ=           -165.8667 XXXY=            -12.3110
 XXXZ=             -6.3744 YYYX=            -11.9540 YYYZ=             -6.8062 ZZZX=             -2.6666
 ZZZY=            -19.7422 XXYY=           -162.1223 XXZZ=           -151.1200 YYZZ=            -65.6957
 XXYZ=             -1.0330 YYXZ=             -1.5128 ZZXY=             -4.9195
 N-N= 3.300717160655D+02 E-N=-1.984159741680D+03  KE= 5.582694064785D+02
 1\1\GINC-TARSUS2\SP\RPBE1PBE\def2TZVP\C3H10O2Si1\RENATO\10-Aug-2018\0\
 \#SP PBE1PBE/Def2TZVP geom=connectivity\\Structure: 167\\0,1\H,0,0.,0.
 ,0.\C,0,1.093,0.,0.\C,0,1.655,1.421,0.\H,0,1.41,-0.56,-0.885\H,0,1.424
 ,-0.557,0.88\H,0,1.308,1.969,-0.883\Si,0,3.513,1.515,0.035\H,0,1.282,1
 .975,0.868\O,0,4.212,0.782,-1.249\O,0,3.968,0.824,1.454\H,0,4.029,2.90
 6,-0.04\H,0,3.973,-0.129,-1.423\C,0,5.301,0.766,1.905\H,0,5.308,0.322,
 2.902\H,0,5.747,1.766,1.967\H,0,5.921,0.153,1.244\\Version=EM64L-G09Re
 vC.01\State=1-A\HF=-560.0612164\RMSD=7.700e-09\Dipole=-0.1292043,-0.40
 60397,0.0887449\Quadrupole=0.8055252,0.4012694,-1.2067945,-1.1321744,2
 .6355519,1.9181846\PG=C01 [X(C3H10O2Si1)]\\@


 Until you make peace with who you are,
 you'll never be content with what you have.
                           -- Doris Mortman
 Job cpu time:  0 days  0 hours 12 minutes 46.9 seconds.
 File lengths (MBytes):  RWF=     40 Int=      0 D2E=      0 Chk=      3 Scr=      1
 Normal termination of Gaussian 09 at Fri Aug 10 04:47:36 2018.
