 Entering Gaussian System, Link 0=g09
 Initial command:
 /usr/local/gaussian09/g09/l1.exe /scratch/renato/Gau-10331.inp -scrdir=/scratch/renato/
 Entering Link 1 = /usr/local/gaussian09/g09/l1.exe PID=     10333.
  
 Copyright (c) 1988,1990,1992,1993,1995,1998,2003,2009,2011,
            Gaussian, Inc.  All Rights Reserved.
  
 This is part of the Gaussian(R) 09 program.  It is based on
 the Gaussian(R) 03 system (copyright 2003, Gaussian, Inc.),
 the Gaussian(R) 98 system (copyright 1998, Gaussian, Inc.),
 the Gaussian(R) 94 system (copyright 1995, Gaussian, Inc.),
 the Gaussian 92(TM) system (copyright 1992, Gaussian, Inc.),
 the Gaussian 90(TM) system (copyright 1990, Gaussian, Inc.),
 the Gaussian 88(TM) system (copyright 1988, Gaussian, Inc.),
 the Gaussian 86(TM) system (copyright 1986, Carnegie Mellon
 University), and the Gaussian 82(TM) system (copyright 1983,
 Carnegie Mellon University). Gaussian is a federally registered
 trademark of Gaussian, Inc.
  
 This software contains proprietary and confidential information,
 including trade secrets, belonging to Gaussian, Inc.
  
 This software is provided under written license and may be
 used, copied, transmitted, or stored only in accord with that
 written license.
  
 The following legend is applicable only to US Government
 contracts under FAR:
  
                    RESTRICTED RIGHTS LEGEND
  
 Use, reproduction and disclosure by the US Government is
 subject to restrictions as set forth in subparagraphs (a)
 and (c) of the Commercial Computer Software - Restricted
 Rights clause in FAR 52.227-19.
  
 Gaussian, Inc.
 340 Quinnipiac St., Bldg. 40, Wallingford CT 06492
  
  
 ---------------------------------------------------------------
 Warning -- This program may not be used in any manner that
 competes with the business of Gaussian, Inc. or will provide
 assistance to any competitor of Gaussian, Inc.  The licensee
 of this program is prohibited from giving any competitor of
 Gaussian, Inc. access to this program.  By using this program,
 the user acknowledges that Gaussian, Inc. is engaged in the
 business of creating and licensing software in the field of
 computational chemistry and represents and warrants to the
 licensee that it is not a competitor of Gaussian, Inc. and that
 it will not use this program in any manner prohibited above.
 ---------------------------------------------------------------
  

 Cite this work as:
 Gaussian 09, Revision C.01,
 M. J. Frisch, G. W. Trucks, H. B. Schlegel, G. E. Scuseria, 
 M. A. Robb, J. R. Cheeseman, G. Scalmani, V. Barone, B. Mennucci, 
 G. A. Petersson, H. Nakatsuji, M. Caricato, X. Li, H. P. Hratchian, 
 A. F. Izmaylov, J. Bloino, G. Zheng, J. L. Sonnenberg, M. Hada, 
 M. Ehara, K. Toyota, R. Fukuda, J. Hasegawa, M. Ishida, T. Nakajima, 
 Y. Honda, O. Kitao, H. Nakai, T. Vreven, J. A. Montgomery, Jr., 
 J. E. Peralta, F. Ogliaro, M. Bearpark, J. J. Heyd, E. Brothers, 
 K. N. Kudin, V. N. Staroverov, T. Keith, R. Kobayashi, J. Normand, 
 K. Raghavachari, A. Rendell, J. C. Burant, S. S. Iyengar, J. Tomasi, 
 M. Cossi, N. Rega, J. M. Millam, M. Klene, J. E. Knox, J. B. Cross, 
 V. Bakken, C. Adamo, J. Jaramillo, R. Gomperts, R. E. Stratmann, 
 O. Yazyev, A. J. Austin, R. Cammi, C. Pomelli, J. W. Ochterski, 
 R. L. Martin, K. Morokuma, V. G. Zakrzewski, G. A. Voth, 
 P. Salvador, J. J. Dannenberg, S. Dapprich, A. D. Daniels, 
 O. Farkas, J. B. Foresman, J. V. Ortiz, J. Cioslowski, 
 and D. J. Fox, Gaussian, Inc., Wallingford CT, 2010.
 
 ******************************************
 Gaussian 09:  EM64L-G09RevC.01 23-Sep-2011
                10-Aug-2018 
 ******************************************
 %nproc=2
 Will use up to    2 processors via shared memory.
 %mem=256MB
 %RWF=bm3.rwf
 %chk=bm3151
 %NoSave
 --------------------------------------
 #SP PBE1PBE/Def2TZVP geom=connectivity
 --------------------------------------
 1/38=1,57=2/1;
 2/12=2,17=6,18=5,40=1/2;
 3/5=44,7=101,11=2,16=1,25=1,30=1,74=-13/1,2,3;
 4//1;
 5/5=2,38=5/2;
 6/7=2,8=2,9=2,10=2,28=1/1;
 99/5=1,9=1/99;
 --------------
 Structure: 151
 --------------
 Charge =  0 Multiplicity = 1
 Symbolic Z-Matrix:
 H                     0.        0.        0. 
 C                     1.093     0.        0. 
 C                     1.655     1.421     0. 
 H                     1.41     -0.56     -0.885 
 H                     1.424    -0.557     0.88 
 H                     1.308     1.969    -0.883 
 Si                    3.513     1.515     0.035 
 H                     1.282     1.975     0.868 
 O                     4.199     0.797    -1.224 
 O                     3.968     0.824     1.454 
 H                     4.029     2.906    -0.04 
 H                     3.96     -0.115    -1.398 
 C                     5.301     0.766     1.905 
 H                     5.308     0.322     2.902 
 H                     5.747     1.766     1.967 
 H                     5.921     0.153     1.244 
 
                          Input orientation:                          
 ---------------------------------------------------------------------
 Center     Atomic      Atomic             Coordinates (Angstroms)
 Number     Number       Type             X           Y           Z
 ---------------------------------------------------------------------
      1          1           0        0.000000    0.000000    0.000000
      2          6           0        1.093000    0.000000    0.000000
      3          6           0        1.655000    1.421000    0.000000
      4          1           0        1.410000   -0.560000   -0.885000
      5          1           0        1.424000   -0.557000    0.880000
      6          1           0        1.308000    1.969000   -0.883000
      7         14           0        3.513000    1.515000    0.035000
      8          1           0        1.282000    1.975000    0.868000
      9          8           0        4.199000    0.797000   -1.224000
     10          8           0        3.968000    0.824000    1.454000
     11          1           0        4.029000    2.906000   -0.040000
     12          1           0        3.960000   -0.115000   -1.398000
     13          6           0        5.301000    0.766000    1.905000
     14          1           0        5.308000    0.322000    2.902000
     15          1           0        5.747000    1.766000    1.967000
     16          1           0        5.921000    0.153000    1.244000
 ---------------------------------------------------------------------
                    Distance matrix (angstroms):
                    1          2          3          4          5
     1  H    0.000000
     2  C    1.093000   0.000000
     3  C    2.181345   1.528098   0.000000
     4  H    1.756395   1.094218   2.183486   0.000000
     5  H    1.764207   1.092799   2.177210   1.765058   0.000000
     6  H    2.523393   2.168611   1.095629   2.531057   3.082580
     7  Si   3.825914   2.855320   1.860706   3.094291   3.061230
     8  H    2.509497   2.165588   1.095203   3.084740   2.536007
     9  O    4.445783   3.432291   2.891278   3.120079   3.736410
    10  O    4.305591   3.325465   2.796515   3.732257   2.951029
    11  H    4.967824   4.131166   2.800482   4.425646   4.429988
    12  H    4.201099   3.191758   3.102696   2.638881   3.437433
    13  C    5.684750   4.682205   4.165497   4.968124   4.222805
    14  H    6.058065   5.127525   4.793101   5.505788   4.466160
    15  H    6.325809   5.352342   4.553304   5.688036   5.026552
    16  H    6.052205   4.988039   4.621051   5.038862   4.567232
                    6          7          8          9         10
     6  H    0.000000
     7  Si   2.431227   0.000000
     8  H    1.751203   2.425459   0.000000
     9  O    3.138112   1.603496   3.777967   0.000000
    10  O    3.721316   1.642579   2.980401   2.688080   0.000000
    11  H    2.998743   1.485517   3.039282   2.424590   2.563295
    12  H    3.411947   2.215897   4.083447   0.958718   3.002614
    13  C    5.016393   2.693482   4.323125   3.317530   1.408423
    14  H    5.747942   3.586776   4.803982   4.298765   2.035757
    15  H    5.279056   2.964183   4.603011   3.676649   2.077348
    16  H    5.394604   3.019137   4.998138   3.077506   2.075705
                   11         12         13         14         15
    11  H    0.000000
    12  H    3.312909   0.000000
    13  C    3.159210   3.672091   0.000000
    14  H    4.119255   4.527480   1.091418   0.000000
    15  H    2.877355   4.249089   1.096704   1.775410   0.000000
    16  H    3.578733   3.301138   1.094116   1.775752   1.776168
                   16
    16  H    0.000000
 Stoichiometry    C3H10O2Si
 Framework group  C1[X(C3H10O2Si)]
 Deg. of freedom    42
 Full point group                 C1      NOp   1
 Largest Abelian subgroup         C1      NOp   1
 Largest concise Abelian subgroup C1      NOp   1
                         Standard orientation:                         
 ---------------------------------------------------------------------
 Center     Atomic      Atomic             Coordinates (Angstroms)
 Number     Number       Type             X           Y           Z
 ---------------------------------------------------------------------
      1          1           0       -3.229847   -1.204902   -0.466314
      2          6           0       -2.234912   -0.784979   -0.634895
      3          6           0       -1.621424   -0.255613    0.660671
      4          1           0       -2.347364    0.006699   -1.381832
      5          1           0       -1.614748   -1.569609   -1.075306
      6          1           0       -2.258021    0.523574    1.094276
      7         14           0        0.090886    0.447574    0.471599
      8          1           0       -1.567310   -1.054888    1.407463
      9          8           0        0.150502    1.681463   -0.550734
     10          8           0        1.034084   -0.802196   -0.024908
     11          1           0        0.629769    1.019888    1.732084
     12          1           0       -0.203408    1.544462   -1.431143
     13          6           0        2.427215   -0.707189   -0.208793
     14          1           0        2.808258   -1.696264   -0.469044
     15          1           0        2.930197   -0.370839    0.705886
     16          1           0        2.678110   -0.011611   -1.015213
 ---------------------------------------------------------------------
 Rotational constants (GHZ):      4.1398025      1.9040333      1.5916121
 Standard basis: def2TZVP (5D, 7F)
 There are   252 symmetry adapted basis functions of A   symmetry.
 Integral buffers will be    131072 words long.
 Raffenetti 2 integral format.
 Two-electron integral symmetry is turned on.
   252 basis functions,   404 primitive gaussians,   282 cartesian basis functions
    29 alpha electrons       29 beta electrons
       nuclear repulsion energy       331.2165183949 Hartrees.
 NAtoms=   16 NActive=   16 NUniq=   16 SFac= 1.00D+00 NAtFMM=   60 NAOKFM=F Big=F
 One-electron integrals computed using PRISM.
   1 Symmetry operations used in ECPInt.
 ECPInt:  NShTT=    5886 NPrTT=   17754 LenC2=    5783 LenP2D=   13927.
 LDataN:  DoStor=T MaxTD1= 6 Len=  172
 NBasis=   252 RedAO= T  NBF=   252
 NBsUse=   252 1.00D-06 NBFU=   252
 Harris functional with IExCor= 1009 diagonalized for initial guess.
 ExpMin= 7.01D-02 ExpMax= 4.48D+04 ExpMxC= 1.53D+03 IAcc=2 IRadAn=         4 AccDes= 0.00D+00
 HarFok:  IExCor= 1009 AccDes= 0.00D+00 IRadAn=         4 IDoV= 1
 ScaDFX=  1.000000  1.000000  1.000000  1.000000
 FoFCou: FMM=F IPFlag=           0 FMFlag=      100000 FMFlg1=           0
         NFxFlg=           0 DoJE=T BraDBF=F KetDBF=T FulRan=T
         Omega=  0.000000  0.000000  1.000000  0.000000  0.000000 ICntrl=     500 IOpCl=  0
         NMat0=    1 NMatS0=    1 NMatT0=    0 NMatD0=    1 NMtDS0=    0 NMtDT0=    0
         I1Cent=           4 NGrid=           0.
 Petite list used in FoFCou.
 Initial guess orbital symmetries:
       Occupied  (A) (A) (A) (A) (A) (A) (A) (A) (A) (A) (A) (A)
                 (A) (A) (A) (A) (A) (A) (A) (A) (A) (A) (A) (A)
                 (A) (A) (A) (A) (A)
       Virtual   (A) (A) (A) (A) (A) (A) (A) (A) (A) (A) (A) (A)
                 (A) (A) (A) (A) (A) (A) (A) (A) (A) (A) (A) (A)
                 (A) (A) (A) (A) (A) (A) (A) (A) (A) (A) (A) (A)
                 (A) (A) (A) (A) (A) (A) (A) (A) (A) (A) (A) (A)
                 (A) (A) (A) (A) (A) (A) (A) (A) (A) (A) (A) (A)
                 (A) (A) (A) (A) (A) (A) (A) (A) (A) (A) (A) (A)
                 (A) (A) (A) (A) (A) (A) (A) (A) (A) (A) (A) (A)
                 (A) (A) (A) (A) (A) (A) (A) (A) (A) (A) (A) (A)
                 (A) (A) (A) (A) (A) (A) (A) (A) (A) (A) (A) (A)
                 (A) (A) (A) (A) (A) (A) (A) (A) (A) (A) (A) (A)
                 (A) (A) (A) (A) (A) (A) (A) (A) (A) (A) (A) (A)
                 (A) (A) (A) (A) (A) (A) (A) (A) (A) (A) (A) (A)
                 (A) (A) (A) (A) (A) (A) (A) (A) (A) (A) (A) (A)
                 (A) (A) (A) (A) (A) (A) (A) (A) (A) (A) (A) (A)
                 (A) (A) (A) (A) (A) (A) (A) (A) (A) (A) (A) (A)
                 (A) (A) (A) (A) (A) (A) (A) (A) (A) (A) (A) (A)
                 (A) (A) (A) (A) (A) (A) (A) (A) (A) (A) (A) (A)
                 (A) (A) (A) (A) (A) (A) (A) (A) (A) (A) (A) (A)
                 (A) (A) (A) (A) (A) (A) (A)
 The electronic state of the initial guess is 1-A.
 Requested convergence on RMS density matrix=1.00D-08 within 128 cycles.
 Requested convergence on MAX density matrix=1.00D-06.
 Requested convergence on             energy=1.00D-06.
 No special actions if energy rises.
 Integral accuracy reduced to 1.0D-05 until final iterations.
 Initial convergence to 1.0D-05 achieved.  Increase integral accuracy.
 SCF Done:  E(RPBE1PBE) =  -560.060051779     A.U. after   12 cycles
             Convg  =    0.8534D-08             -V/T =  2.0031

 **********************************************************************

            Population analysis using the SCF density.

 **********************************************************************

 Orbital symmetries:
       Occupied  (A) (A) (A) (A) (A) (A) (A) (A) (A) (A) (A) (A)
                 (A) (A) (A) (A) (A) (A) (A) (A) (A) (A) (A) (A)
                 (A) (A) (A) (A) (A)
       Virtual   (A) (A) (A) (A) (A) (A) (A) (A) (A) (A) (A) (A)
                 (A) (A) (A) (A) (A) (A) (A) (A) (A) (A) (A) (A)
                 (A) (A) (A) (A) (A) (A) (A) (A) (A) (A) (A) (A)
                 (A) (A) (A) (A) (A) (A) (A) (A) (A) (A) (A) (A)
                 (A) (A) (A) (A) (A) (A) (A) (A) (A) (A) (A) (A)
                 (A) (A) (A) (A) (A) (A) (A) (A) (A) (A) (A) (A)
                 (A) (A) (A) (A) (A) (A) (A) (A) (A) (A) (A) (A)
                 (A) (A) (A) (A) (A) (A) (A) (A) (A) (A) (A) (A)
                 (A) (A) (A) (A) (A) (A) (A) (A) (A) (A) (A) (A)
                 (A) (A) (A) (A) (A) (A) (A) (A) (A) (A) (A) (A)
                 (A) (A) (A) (A) (A) (A) (A) (A) (A) (A) (A) (A)
                 (A) (A) (A) (A) (A) (A) (A) (A) (A) (A) (A) (A)
                 (A) (A) (A) (A) (A) (A) (A) (A) (A) (A) (A) (A)
                 (A) (A) (A) (A) (A) (A) (A) (A) (A) (A) (A) (A)
                 (A) (A) (A) (A) (A) (A) (A) (A) (A) (A) (A) (A)
                 (A) (A) (A) (A) (A) (A) (A) (A) (A) (A) (A) (A)
                 (A) (A) (A) (A) (A) (A) (A) (A) (A) (A) (A) (A)
                 (A) (A) (A) (A) (A) (A) (A) (A) (A) (A) (A) (A)
                 (A) (A) (A) (A) (A) (A) (A)
 The electronic state is 1-A.
 Alpha  occ. eigenvalues --  -66.24801 -19.20512 -19.19802 -10.26373 -10.21691
 Alpha  occ. eigenvalues --  -10.20676  -5.32592  -3.66120  -3.66003  -3.65856
 Alpha  occ. eigenvalues --   -1.04834  -1.02811  -0.78113  -0.70419  -0.63977
 Alpha  occ. eigenvalues --   -0.57329  -0.51295  -0.46767  -0.46560  -0.45985
 Alpha  occ. eigenvalues --   -0.43504  -0.40792  -0.39660  -0.37172  -0.36970
 Alpha  occ. eigenvalues --   -0.35857  -0.31808  -0.30334  -0.29513
 Alpha virt. eigenvalues --    0.02267   0.05696   0.06134   0.08096   0.09005
 Alpha virt. eigenvalues --    0.10248   0.10966   0.11561   0.12358   0.13519
 Alpha virt. eigenvalues --    0.14295   0.15286   0.16243   0.16738   0.19383
 Alpha virt. eigenvalues --    0.21376   0.22144   0.23625   0.24673   0.25018
 Alpha virt. eigenvalues --    0.26648   0.28530   0.29312   0.29670   0.31568
 Alpha virt. eigenvalues --    0.33057   0.36631   0.39257   0.40210   0.40798
 Alpha virt. eigenvalues --    0.41991   0.42590   0.44209   0.45190   0.45773
 Alpha virt. eigenvalues --    0.46315   0.47512   0.47916   0.50087   0.50652
 Alpha virt. eigenvalues --    0.51627   0.53394   0.55323   0.56990   0.59953
 Alpha virt. eigenvalues --    0.60746   0.63087   0.65756   0.66400   0.67855
 Alpha virt. eigenvalues --    0.74094   0.74761   0.75471   0.78282   0.81379
 Alpha virt. eigenvalues --    0.83402   0.83961   0.86393   0.88207   0.91965
 Alpha virt. eigenvalues --    0.93211   0.95649   0.97186   0.99724   1.00947
 Alpha virt. eigenvalues --    1.04433   1.07147   1.09035   1.09591   1.11945
 Alpha virt. eigenvalues --    1.12558   1.12753   1.15743   1.19410   1.21387
 Alpha virt. eigenvalues --    1.25182   1.29665   1.32548   1.36847   1.41396
 Alpha virt. eigenvalues --    1.42307   1.46527   1.48414   1.49743   1.52666
 Alpha virt. eigenvalues --    1.53147   1.54645   1.55180   1.56461   1.57873
 Alpha virt. eigenvalues --    1.59437   1.62775   1.63835   1.64440   1.66201
 Alpha virt. eigenvalues --    1.68238   1.72238   1.75976   1.78675   1.79662
 Alpha virt. eigenvalues --    1.80755   1.83268   1.86117   1.89103   1.92216
 Alpha virt. eigenvalues --    1.95176   1.96030   1.99991   2.02423   2.04604
 Alpha virt. eigenvalues --    2.05815   2.08616   2.11549   2.12386   2.15386
 Alpha virt. eigenvalues --    2.17666   2.19136   2.26592   2.29437   2.30358
 Alpha virt. eigenvalues --    2.33156   2.33327   2.34847   2.35502   2.35915
 Alpha virt. eigenvalues --    2.36551   2.40623   2.44580   2.47772   2.49657
 Alpha virt. eigenvalues --    2.51195   2.52076   2.54887   2.56232   2.58383
 Alpha virt. eigenvalues --    2.59778   2.61440   2.65606   2.67338   2.71215
 Alpha virt. eigenvalues --    2.73209   2.77717   2.80626   2.83962   2.85382
 Alpha virt. eigenvalues --    2.87421   2.93655   2.95011   3.00056   3.02859
 Alpha virt. eigenvalues --    3.07585   3.09269   3.11195   3.11773   3.15366
 Alpha virt. eigenvalues --    3.21312   3.22529   3.23509   3.28058   3.30118
 Alpha virt. eigenvalues --    3.32261   3.32872   3.37580   3.40473   3.44602
 Alpha virt. eigenvalues --    3.45325   3.46250   3.49469   3.53591   3.54348
 Alpha virt. eigenvalues --    3.58576   3.62380   3.63018   3.65300   3.76897
 Alpha virt. eigenvalues --    3.81440   3.89753   3.93193   3.96128   4.03252
 Alpha virt. eigenvalues --    4.19266   4.24265   4.25318   4.34320   4.37048
 Alpha virt. eigenvalues --    4.41745   4.47104   4.53552   4.57352   4.78818
 Alpha virt. eigenvalues --    5.15293   5.16633   5.18204   5.19778   5.29449
 Alpha virt. eigenvalues --    5.30940   5.39318   5.41928   5.45651   5.49774
 Alpha virt. eigenvalues --    5.80165   5.86851   6.03805   6.23343   6.42280
 Alpha virt. eigenvalues --    6.43724   6.54674   6.59559   6.60961   6.67676
 Alpha virt. eigenvalues --    6.72463   6.80320   6.82343   6.96767   7.06619
 Alpha virt. eigenvalues --    7.16334   7.23360  11.98825  22.37127  22.41061
 Alpha virt. eigenvalues --   22.45555  43.64720  43.94842
          Condensed to atoms (all electrons):
              1          2          3          4          5          6
     1  H    0.550707   0.408615  -0.033325  -0.025321  -0.024484  -0.006863
     2  C    0.408615   4.940882   0.312437   0.401210   0.413167  -0.029934
     3  C   -0.033325   0.312437   5.042731  -0.044990  -0.040023   0.386857
     4  H   -0.025321   0.401210  -0.044990   0.588089  -0.028021  -0.004946
     5  H   -0.024484   0.413167  -0.040023  -0.028021   0.533343   0.007798
     6  H   -0.006863  -0.029934   0.386857  -0.004946   0.007798   0.579584
     7  Si   0.007577  -0.019106   0.423520  -0.006264  -0.007964  -0.028245
     8  H   -0.006965  -0.027552   0.369595   0.008907  -0.004093  -0.026166
     9  O   -0.000008  -0.002823  -0.039920   0.004335  -0.000409  -0.001083
    10  O    0.000012  -0.004921  -0.031589   0.000441   0.007542   0.001297
    11  H   -0.000114   0.001871  -0.035654   0.000209   0.000415   0.001436
    12  H   -0.000100   0.000645  -0.002394   0.002268   0.000044   0.000079
    13  C    0.000010  -0.000066   0.002077   0.000090  -0.000083  -0.000128
    14  H   -0.000004   0.000223  -0.000424  -0.000002  -0.000163   0.000000
    15  H    0.000000  -0.000039  -0.000059  -0.000001   0.000083   0.000006
    16  H    0.000001  -0.000138   0.000842  -0.000013   0.000016   0.000014
              7          8          9         10         11         12
     1  H    0.007577  -0.006965  -0.000008   0.000012  -0.000114  -0.000100
     2  C   -0.019106  -0.027552  -0.002823  -0.004921   0.001871   0.000645
     3  C    0.423520   0.369595  -0.039920  -0.031589  -0.035654  -0.002394
     4  H   -0.006264   0.008907   0.004335   0.000441   0.000209   0.002268
     5  H   -0.007964  -0.004093  -0.000409   0.007542   0.000415   0.000044
     6  H   -0.028245  -0.026166  -0.001083   0.001297   0.001436   0.000079
     7  Si  11.883566  -0.014253   0.484160   0.451548   0.390945  -0.029572
     8  H   -0.014253   0.578699   0.002013   0.001843   0.000838  -0.000016
     9  O    0.484160   0.002013   7.809092  -0.037558  -0.016868   0.302534
    10  O    0.451548   0.001843  -0.037558   7.847131  -0.026709  -0.001295
    11  H    0.390945   0.000838  -0.016868  -0.026709   0.736767   0.004555
    12  H   -0.029572  -0.000016   0.302534  -0.001295   0.004555   0.401317
    13  C   -0.049346   0.000071  -0.007013   0.262249   0.002439   0.000793
    14  H    0.007565   0.000001   0.000077  -0.041148  -0.000233   0.000021
    15  H   -0.017712  -0.000018  -0.000513  -0.042770   0.010348  -0.000040
    16  H   -0.004918  -0.000018   0.006677  -0.044415  -0.002032   0.000389
             13         14         15         16
     1  H    0.000010  -0.000004   0.000000   0.000001
     2  C   -0.000066   0.000223  -0.000039  -0.000138
     3  C    0.002077  -0.000424  -0.000059   0.000842
     4  H    0.000090  -0.000002  -0.000001  -0.000013
     5  H   -0.000083  -0.000163   0.000083   0.000016
     6  H   -0.000128   0.000000   0.000006   0.000014
     7  Si  -0.049346   0.007565  -0.017712  -0.004918
     8  H    0.000071   0.000001  -0.000018  -0.000018
     9  O   -0.007013   0.000077  -0.000513   0.006677
    10  O    0.262249  -0.041148  -0.042770  -0.044415
    11  H    0.002439  -0.000233   0.010348  -0.002032
    12  H    0.000793   0.000021  -0.000040   0.000389
    13  C    4.766803   0.403046   0.418108   0.411934
    14  H    0.403046   0.566896  -0.030397  -0.034007
    15  H    0.418108  -0.030397   0.593659  -0.048166
    16  H    0.411934  -0.034007  -0.048166   0.595980
 Mulliken atomic charges:
              1
     1  H    0.130263
     2  C   -0.394472
     3  C   -0.309681
     4  H    0.104008
     5  H    0.142834
     6  H    0.120293
     7  Si   0.528498
     8  H    0.117115
     9  O   -0.502693
    10  O   -0.341658
    11  H   -0.068213
    12  H    0.320772
    13  C   -0.210983
    14  H    0.128551
    15  H    0.117513
    16  H    0.117854
 Sum of Mulliken atomic charges =   0.00000
 Mulliken charges with hydrogens summed into heavy atoms:
              1
     2  C   -0.017367
     3  C   -0.072272
     7  Si   0.460284
     9  O   -0.181921
    10  O   -0.341658
    13  C    0.152934
 Sum of Mulliken charges with hydrogens summed into heavy atoms =   0.00000
 Electronic spatial extent (au):  <R**2>=            861.9334
 Charge=              0.0000 electrons
 Dipole moment (field-independent basis, Debye):
    X=             -0.2786    Y=             -0.4489    Z=             -1.0039  Tot=              1.1345
 Quadrupole moment (field-independent basis, Debye-Ang):
   XX=            -41.3013   YY=            -49.0220   ZZ=            -42.8647
   XY=             -1.6128   XZ=             -0.1913   YZ=             -1.7521
 Traceless Quadrupole moment (field-independent basis, Debye-Ang):
   XX=              3.0947   YY=             -4.6260   ZZ=              1.5313
   XY=             -1.6128   XZ=             -0.1913   YZ=             -1.7521
 Octapole moment (field-independent basis, Debye-Ang**2):
  XXX=             14.4584  YYY=             -5.5940  ZZZ=            -11.1522  XYY=             -0.6886
  XXY=             -1.9117  XXZ=             -1.2822  XZZ=              0.5858  YZZ=              4.7983
  YYZ=             -3.2238  XYZ=              1.7679
 Hexadecapole moment (field-independent basis, Debye-Ang**3):
 XXXX=           -707.1290 YYYY=           -284.8261 ZZZZ=           -164.1938 XXXY=            -12.2905
 XXXZ=             -6.1319 YYYX=            -11.8258 YYYZ=             -6.4760 ZZZX=             -2.5643
 ZZZY=            -20.0681 XXYY=           -161.6031 XXZZ=           -151.1758 YYZZ=            -65.6871
 XXYZ=             -1.2577 YYXZ=             -1.5917 ZZXY=             -4.8892
 N-N= 3.312165183949D+02 E-N=-1.986521248392D+03  KE= 5.583384408469D+02
 1\1\GINC-TARSUS2\SP\RPBE1PBE\def2TZVP\C3H10O2Si1\RENATO\10-Aug-2018\0\
 \#SP PBE1PBE/Def2TZVP geom=connectivity\\Structure: 151\\0,1\H,0,0.,0.
 ,0.\C,0,1.093,0.,0.\C,0,1.655,1.421,0.\H,0,1.41,-0.56,-0.885\H,0,1.424
 ,-0.557,0.88\H,0,1.308,1.969,-0.883\Si,0,3.513,1.515,0.035\H,0,1.282,1
 .975,0.868\O,0,4.199,0.797,-1.224\O,0,3.968,0.824,1.454\H,0,4.029,2.90
 6,-0.04\H,0,3.96,-0.115,-1.398\C,0,5.301,0.766,1.905\H,0,5.308,0.322,2
 .902\H,0,5.747,1.766,1.967\H,0,5.921,0.153,1.244\\Version=EM64L-G09Rev
 C.01\State=1-A\HF=-560.0600518\RMSD=8.534e-09\Dipole=-0.1066972,-0.431
 0242,0.0452353\Quadrupole=0.7815485,0.3049392,-1.0864877,-1.1527578,2.
 5185699,1.9365322\PG=C01 [X(C3H10O2Si1)]\\@


 OPTIMIST - A PESSIMIST WHO LACKS EXPERIENCE
 Job cpu time:  0 days  0 hours 13 minutes  0.4 seconds.
 File lengths (MBytes):  RWF=     40 Int=      0 D2E=      0 Chk=      3 Scr=      1
 Normal termination of Gaussian 09 at Fri Aug 10 03:04:35 2018.
