 Entering Gaussian System, Link 0=g09
 Initial command:
 /usr/local/gaussian09/g09/l1.exe /scratch/renato/Gau-5671.inp -scrdir=/scratch/renato/
 Entering Link 1 = /usr/local/gaussian09/g09/l1.exe PID=      5673.
  
 Copyright (c) 1988,1990,1992,1993,1995,1998,2003,2009,2011,
            Gaussian, Inc.  All Rights Reserved.
  
 This is part of the Gaussian(R) 09 program.  It is based on
 the Gaussian(R) 03 system (copyright 2003, Gaussian, Inc.),
 the Gaussian(R) 98 system (copyright 1998, Gaussian, Inc.),
 the Gaussian(R) 94 system (copyright 1995, Gaussian, Inc.),
 the Gaussian 92(TM) system (copyright 1992, Gaussian, Inc.),
 the Gaussian 90(TM) system (copyright 1990, Gaussian, Inc.),
 the Gaussian 88(TM) system (copyright 1988, Gaussian, Inc.),
 the Gaussian 86(TM) system (copyright 1986, Carnegie Mellon
 University), and the Gaussian 82(TM) system (copyright 1983,
 Carnegie Mellon University). Gaussian is a federally registered
 trademark of Gaussian, Inc.
  
 This software contains proprietary and confidential information,
 including trade secrets, belonging to Gaussian, Inc.
  
 This software is provided under written license and may be
 used, copied, transmitted, or stored only in accord with that
 written license.
  
 The following legend is applicable only to US Government
 contracts under FAR:
  
                    RESTRICTED RIGHTS LEGEND
  
 Use, reproduction and disclosure by the US Government is
 subject to restrictions as set forth in subparagraphs (a)
 and (c) of the Commercial Computer Software - Restricted
 Rights clause in FAR 52.227-19.
  
 Gaussian, Inc.
 340 Quinnipiac St., Bldg. 40, Wallingford CT 06492
  
  
 ---------------------------------------------------------------
 Warning -- This program may not be used in any manner that
 competes with the business of Gaussian, Inc. or will provide
 assistance to any competitor of Gaussian, Inc.  The licensee
 of this program is prohibited from giving any competitor of
 Gaussian, Inc. access to this program.  By using this program,
 the user acknowledges that Gaussian, Inc. is engaged in the
 business of creating and licensing software in the field of
 computational chemistry and represents and warrants to the
 licensee that it is not a competitor of Gaussian, Inc. and that
 it will not use this program in any manner prohibited above.
 ---------------------------------------------------------------
  

 Cite this work as:
 Gaussian 09, Revision C.01,
 M. J. Frisch, G. W. Trucks, H. B. Schlegel, G. E. Scuseria, 
 M. A. Robb, J. R. Cheeseman, G. Scalmani, V. Barone, B. Mennucci, 
 G. A. Petersson, H. Nakatsuji, M. Caricato, X. Li, H. P. Hratchian, 
 A. F. Izmaylov, J. Bloino, G. Zheng, J. L. Sonnenberg, M. Hada, 
 M. Ehara, K. Toyota, R. Fukuda, J. Hasegawa, M. Ishida, T. Nakajima, 
 Y. Honda, O. Kitao, H. Nakai, T. Vreven, J. A. Montgomery, Jr., 
 J. E. Peralta, F. Ogliaro, M. Bearpark, J. J. Heyd, E. Brothers, 
 K. N. Kudin, V. N. Staroverov, T. Keith, R. Kobayashi, J. Normand, 
 K. Raghavachari, A. Rendell, J. C. Burant, S. S. Iyengar, J. Tomasi, 
 M. Cossi, N. Rega, J. M. Millam, M. Klene, J. E. Knox, J. B. Cross, 
 V. Bakken, C. Adamo, J. Jaramillo, R. Gomperts, R. E. Stratmann, 
 O. Yazyev, A. J. Austin, R. Cammi, C. Pomelli, J. W. Ochterski, 
 R. L. Martin, K. Morokuma, V. G. Zakrzewski, G. A. Voth, 
 P. Salvador, J. J. Dannenberg, S. Dapprich, A. D. Daniels, 
 O. Farkas, J. B. Foresman, J. V. Ortiz, J. Cioslowski, 
 and D. J. Fox, Gaussian, Inc., Wallingford CT, 2010.
 
 ******************************************
 Gaussian 09:  EM64L-G09RevC.01 23-Sep-2011
                 9-Aug-2018 
 ******************************************
 %nproc=2
 Will use up to    2 processors via shared memory.
 %mem=256MB
 %RWF=bm3.rwf
 %chk=bm3112
 %NoSave
 --------------------------------------
 #SP PBE1PBE/Def2TZVP geom=connectivity
 --------------------------------------
 1/38=1,57=2/1;
 2/12=2,17=6,18=5,40=1/2;
 3/5=44,7=101,11=2,16=1,25=1,30=1,74=-13/1,2,3;
 4//1;
 5/5=2,38=5/2;
 6/7=2,8=2,9=2,10=2,28=1/1;
 99/5=1,9=1/99;
 --------------
 Structure: 112
 --------------
 Charge =  0 Multiplicity = 1
 Symbolic Z-Matrix:
 H                     0.        0.        0. 
 C                     1.093     0.        0. 
 C                     1.655     1.421     0. 
 H                     1.41     -0.56     -0.885 
 H                     1.424    -0.557     0.88 
 H                     1.308     1.969    -0.883 
 Si                    3.513     1.515     0.035 
 H                     1.282     1.975     0.868 
 O                     4.165     0.832    -1.163 
 O                     3.968     0.824     1.454 
 H                     4.029     2.906    -0.04 
 H                     3.926    -0.08     -1.337 
 C                     5.301     0.766     1.905 
 H                     5.308     0.322     2.902 
 H                     5.747     1.766     1.967 
 H                     5.921     0.153     1.244 
 
                          Input orientation:                          
 ---------------------------------------------------------------------
 Center     Atomic      Atomic             Coordinates (Angstroms)
 Number     Number       Type             X           Y           Z
 ---------------------------------------------------------------------
      1          1           0        0.000000    0.000000    0.000000
      2          6           0        1.093000    0.000000    0.000000
      3          6           0        1.655000    1.421000    0.000000
      4          1           0        1.410000   -0.560000   -0.885000
      5          1           0        1.424000   -0.557000    0.880000
      6          1           0        1.308000    1.969000   -0.883000
      7         14           0        3.513000    1.515000    0.035000
      8          1           0        1.282000    1.975000    0.868000
      9          8           0        4.165000    0.832000   -1.163000
     10          8           0        3.968000    0.824000    1.454000
     11          1           0        4.029000    2.906000   -0.040000
     12          1           0        3.926000   -0.080000   -1.337000
     13          6           0        5.301000    0.766000    1.905000
     14          1           0        5.308000    0.322000    2.902000
     15          1           0        5.747000    1.766000    1.967000
     16          1           0        5.921000    0.153000    1.244000
 ---------------------------------------------------------------------
                    Distance matrix (angstroms):
                    1          2          3          4          5
     1  H    0.000000
     2  C    1.093000   0.000000
     3  C    2.181345   1.528098   0.000000
     4  H    1.756395   1.094218   2.183486   0.000000
     5  H    1.764207   1.092799   2.177210   1.765058   0.000000
     6  H    2.523393   2.168611   1.095629   2.531057   3.082580
     7  Si   3.825914   2.855320   1.860706   3.094291   3.061230
     8  H    2.509497   2.165588   1.095203   3.084740   2.536007
     9  O    4.403637   3.388507   2.828355   3.099189   3.690020
    10  O    4.305591   3.325465   2.796515   3.732257   2.951029
    11  H    4.967824   4.131166   2.800482   4.425646   4.429988
    12  H    4.148186   3.133665   3.032822   2.600954   3.376777
    13  C    5.684750   4.682205   4.165497   4.968124   4.222805
    14  H    6.058065   5.127525   4.793101   5.505788   4.466160
    15  H    6.325809   5.352342   4.553304   5.688036   5.026552
    16  H    6.052205   4.988039   4.621051   5.038862   4.567232
                    6          7          8          9         10
     6  H    0.000000
     7  Si   2.431227   0.000000
     8  H    1.751203   2.425459   0.000000
     9  O    3.087656   1.525384   3.707169   0.000000
    10  O    3.721316   1.642579   2.980401   2.624417   0.000000
    11  H    2.998743   1.485517   3.039282   2.362435   2.563295
    12  H    3.355360   2.144056   4.009462   0.958718   2.934052
    13  C    5.016393   2.693482   4.323125   3.272228   1.408423
    14  H    5.747942   3.586776   4.803982   4.253325   2.035757
    15  H    5.279056   2.964183   4.603011   3.629322   2.077348
    16  H    5.394604   3.019137   4.998138   3.055851   2.075705
                   11         12         13         14         15
    11  H    0.000000
    12  H    3.257148   0.000000
    13  C    3.159210   3.621727   0.000000
    14  H    4.119255   4.476678   1.091418   0.000000
    15  H    2.877355   4.200021   1.096704   1.775410   0.000000
    16  H    3.578733   3.270455   1.094116   1.775752   1.776168
                   16
    16  H    0.000000
 Stoichiometry    C3H10O2Si
 Framework group  C1[X(C3H10O2Si)]
 Deg. of freedom    42
 Full point group                 C1      NOp   1
 Largest Abelian subgroup         C1      NOp   1
 Largest concise Abelian subgroup C1      NOp   1
                         Standard orientation:                         
 ---------------------------------------------------------------------
 Center     Atomic      Atomic             Coordinates (Angstroms)
 Number     Number       Type             X           Y           Z
 ---------------------------------------------------------------------
      1          1           0       -3.228128   -1.219297   -0.418315
      2          6           0       -2.233798   -0.806124   -0.606050
      3          6           0       -1.620191   -0.218901    0.664281
      4          1           0       -2.347638   -0.048606   -1.387409
      5          1           0       -1.612948   -1.608847   -1.011501
      6          1           0       -2.257472    0.578063    1.063184
      7         14           0        0.091160    0.477188    0.443010
      8          1           0       -1.564680   -0.984084    1.445871
      9          8           0        0.145229    1.606669   -0.580780
     10          8           0        1.035572   -0.792331    0.002016
     11          1           0        0.630090    1.105667    1.676433
     12          1           0       -0.209030    1.430205   -1.453993
     13          6           0        2.428480   -0.703963   -0.186802
     14          1           0        2.810561   -1.703192   -0.403020
     15          1           0        2.931591   -0.326647    0.711681
     16          1           0        2.678067   -0.044670   -1.023539
 ---------------------------------------------------------------------
 Rotational constants (GHZ):      4.2914681      1.9110525      1.6086368
 Standard basis: def2TZVP (5D, 7F)
 There are   252 symmetry adapted basis functions of A   symmetry.
 Integral buffers will be    131072 words long.
 Raffenetti 2 integral format.
 Two-electron integral symmetry is turned on.
   252 basis functions,   404 primitive gaussians,   282 cartesian basis functions
    29 alpha electrons       29 beta electrons
       nuclear repulsion energy       334.1874647176 Hartrees.
 NAtoms=   16 NActive=   16 NUniq=   16 SFac= 1.00D+00 NAtFMM=   60 NAOKFM=F Big=F
 One-electron integrals computed using PRISM.
   1 Symmetry operations used in ECPInt.
 ECPInt:  NShTT=    5886 NPrTT=   17754 LenC2=    5783 LenP2D=   13948.
 LDataN:  DoStor=T MaxTD1= 6 Len=  172
 NBasis=   252 RedAO= T  NBF=   252
 NBsUse=   252 1.00D-06 NBFU=   252
 Harris functional with IExCor= 1009 diagonalized for initial guess.
 ExpMin= 7.01D-02 ExpMax= 4.48D+04 ExpMxC= 1.53D+03 IAcc=2 IRadAn=         4 AccDes= 0.00D+00
 HarFok:  IExCor= 1009 AccDes= 0.00D+00 IRadAn=         4 IDoV= 1
 ScaDFX=  1.000000  1.000000  1.000000  1.000000
 FoFCou: FMM=F IPFlag=           0 FMFlag=      100000 FMFlg1=           0
         NFxFlg=           0 DoJE=T BraDBF=F KetDBF=T FulRan=T
         Omega=  0.000000  0.000000  1.000000  0.000000  0.000000 ICntrl=     500 IOpCl=  0
         NMat0=    1 NMatS0=    1 NMatT0=    0 NMatD0=    1 NMtDS0=    0 NMtDT0=    0
         I1Cent=           4 NGrid=           0.
 Petite list used in FoFCou.
 Initial guess orbital symmetries:
       Occupied  (A) (A) (A) (A) (A) (A) (A) (A) (A) (A) (A) (A)
                 (A) (A) (A) (A) (A) (A) (A) (A) (A) (A) (A) (A)
                 (A) (A) (A) (A) (A)
       Virtual   (A) (A) (A) (A) (A) (A) (A) (A) (A) (A) (A) (A)
                 (A) (A) (A) (A) (A) (A) (A) (A) (A) (A) (A) (A)
                 (A) (A) (A) (A) (A) (A) (A) (A) (A) (A) (A) (A)
                 (A) (A) (A) (A) (A) (A) (A) (A) (A) (A) (A) (A)
                 (A) (A) (A) (A) (A) (A) (A) (A) (A) (A) (A) (A)
                 (A) (A) (A) (A) (A) (A) (A) (A) (A) (A) (A) (A)
                 (A) (A) (A) (A) (A) (A) (A) (A) (A) (A) (A) (A)
                 (A) (A) (A) (A) (A) (A) (A) (A) (A) (A) (A) (A)
                 (A) (A) (A) (A) (A) (A) (A) (A) (A) (A) (A) (A)
                 (A) (A) (A) (A) (A) (A) (A) (A) (A) (A) (A) (A)
                 (A) (A) (A) (A) (A) (A) (A) (A) (A) (A) (A) (A)
                 (A) (A) (A) (A) (A) (A) (A) (A) (A) (A) (A) (A)
                 (A) (A) (A) (A) (A) (A) (A) (A) (A) (A) (A) (A)
                 (A) (A) (A) (A) (A) (A) (A) (A) (A) (A) (A) (A)
                 (A) (A) (A) (A) (A) (A) (A) (A) (A) (A) (A) (A)
                 (A) (A) (A) (A) (A) (A) (A) (A) (A) (A) (A) (A)
                 (A) (A) (A) (A) (A) (A) (A) (A) (A) (A) (A) (A)
                 (A) (A) (A) (A) (A) (A) (A) (A) (A) (A) (A) (A)
                 (A) (A) (A) (A) (A) (A) (A)
 The electronic state of the initial guess is 1-A.
 Requested convergence on RMS density matrix=1.00D-08 within 128 cycles.
 Requested convergence on MAX density matrix=1.00D-06.
 Requested convergence on             energy=1.00D-06.
 No special actions if energy rises.
 Integral accuracy reduced to 1.0D-05 until final iterations.
 Initial convergence to 1.0D-05 achieved.  Increase integral accuracy.
 SCF Done:  E(RPBE1PBE) =  -560.050335749     A.U. after   12 cycles
             Convg  =    0.9617D-08             -V/T =  2.0027

 **********************************************************************

            Population analysis using the SCF density.

 **********************************************************************

 Orbital symmetries:
       Occupied  (A) (A) (A) (A) (A) (A) (A) (A) (A) (A) (A) (A)
                 (A) (A) (A) (A) (A) (A) (A) (A) (A) (A) (A) (A)
                 (A) (A) (A) (A) (A)
       Virtual   (A) (A) (A) (A) (A) (A) (A) (A) (A) (A) (A) (A)
                 (A) (A) (A) (A) (A) (A) (A) (A) (A) (A) (A) (A)
                 (A) (A) (A) (A) (A) (A) (A) (A) (A) (A) (A) (A)
                 (A) (A) (A) (A) (A) (A) (A) (A) (A) (A) (A) (A)
                 (A) (A) (A) (A) (A) (A) (A) (A) (A) (A) (A) (A)
                 (A) (A) (A) (A) (A) (A) (A) (A) (A) (A) (A) (A)
                 (A) (A) (A) (A) (A) (A) (A) (A) (A) (A) (A) (A)
                 (A) (A) (A) (A) (A) (A) (A) (A) (A) (A) (A) (A)
                 (A) (A) (A) (A) (A) (A) (A) (A) (A) (A) (A) (A)
                 (A) (A) (A) (A) (A) (A) (A) (A) (A) (A) (A) (A)
                 (A) (A) (A) (A) (A) (A) (A) (A) (A) (A) (A) (A)
                 (A) (A) (A) (A) (A) (A) (A) (A) (A) (A) (A) (A)
                 (A) (A) (A) (A) (A) (A) (A) (A) (A) (A) (A) (A)
                 (A) (A) (A) (A) (A) (A) (A) (A) (A) (A) (A) (A)
                 (A) (A) (A) (A) (A) (A) (A) (A) (A) (A) (A) (A)
                 (A) (A) (A) (A) (A) (A) (A) (A) (A) (A) (A) (A)
                 (A) (A) (A) (A) (A) (A) (A) (A) (A) (A) (A) (A)
                 (A) (A) (A) (A) (A) (A) (A) (A) (A) (A) (A) (A)
                 (A) (A) (A) (A) (A) (A) (A)
 The electronic state is 1-A.
 Alpha  occ. eigenvalues --  -66.23700 -19.20886 -19.19434 -10.26247 -10.21623
 Alpha  occ. eigenvalues --  -10.20344  -5.31793  -3.65341  -3.65184  -3.65030
 Alpha  occ. eigenvalues --   -1.06406  -1.02994  -0.77949  -0.70249  -0.63861
 Alpha  occ. eigenvalues --   -0.58581  -0.51394  -0.46685  -0.46485  -0.46021
 Alpha  occ. eigenvalues --   -0.43421  -0.40808  -0.40477  -0.38161  -0.36887
 Alpha  occ. eigenvalues --   -0.35862  -0.31621  -0.30125  -0.29190
 Alpha virt. eigenvalues --    0.02175   0.05911   0.06288   0.08231   0.09057
 Alpha virt. eigenvalues --    0.10360   0.11130   0.11771   0.12436   0.13538
 Alpha virt. eigenvalues --    0.14700   0.15359   0.16503   0.17076   0.19530
 Alpha virt. eigenvalues --    0.21464   0.22292   0.23823   0.24773   0.25087
 Alpha virt. eigenvalues --    0.26631   0.28758   0.29214   0.30237   0.32090
 Alpha virt. eigenvalues --    0.33450   0.36586   0.39153   0.40533   0.40979
 Alpha virt. eigenvalues --    0.42098   0.42702   0.44331   0.45156   0.46017
 Alpha virt. eigenvalues --    0.46486   0.47594   0.47987   0.50260   0.50850
 Alpha virt. eigenvalues --    0.52318   0.53486   0.55342   0.57168   0.59740
 Alpha virt. eigenvalues --    0.60736   0.63310   0.65910   0.67116   0.67700
 Alpha virt. eigenvalues --    0.74242   0.75295   0.75888   0.78743   0.82098
 Alpha virt. eigenvalues --    0.83883   0.84150   0.86406   0.88520   0.92082
 Alpha virt. eigenvalues --    0.93483   0.95784   0.97688   1.00077   1.01206
 Alpha virt. eigenvalues --    1.04740   1.07372   1.09507   1.10778   1.11778
 Alpha virt. eigenvalues --    1.12511   1.14874   1.16205   1.20129   1.21861
 Alpha virt. eigenvalues --    1.25621   1.31051   1.33123   1.37412   1.41830
 Alpha virt. eigenvalues --    1.42731   1.46816   1.49313   1.50237   1.52923
 Alpha virt. eigenvalues --    1.53398   1.54960   1.55289   1.56613   1.58081
 Alpha virt. eigenvalues --    1.59518   1.63056   1.64240   1.65269   1.66671
 Alpha virt. eigenvalues --    1.68450   1.72880   1.76575   1.79738   1.80767
 Alpha virt. eigenvalues --    1.81206   1.83694   1.86332   1.89570   1.92889
 Alpha virt. eigenvalues --    1.95434   1.96409   2.00344   2.03367   2.05783
 Alpha virt. eigenvalues --    2.06473   2.09040   2.13010   2.13097   2.15947
 Alpha virt. eigenvalues --    2.18096   2.20059   2.26259   2.30021   2.30817
 Alpha virt. eigenvalues --    2.33462   2.33934   2.35270   2.36137   2.36546
 Alpha virt. eigenvalues --    2.37508   2.40972   2.45716   2.48179   2.50491
 Alpha virt. eigenvalues --    2.51531   2.52598   2.55159   2.56393   2.58553
 Alpha virt. eigenvalues --    2.60125   2.61620   2.66023   2.67919   2.71635
 Alpha virt. eigenvalues --    2.73678   2.78582   2.80833   2.85109   2.86392
 Alpha virt. eigenvalues --    2.89203   2.94282   2.96189   3.00214   3.04261
 Alpha virt. eigenvalues --    3.09068   3.09441   3.11564   3.13070   3.15770
 Alpha virt. eigenvalues --    3.21859   3.22690   3.23869   3.29141   3.30427
 Alpha virt. eigenvalues --    3.32613   3.33140   3.38007   3.40724   3.44819
 Alpha virt. eigenvalues --    3.45680   3.46566   3.52541   3.53862   3.56369
 Alpha virt. eigenvalues --    3.58906   3.62600   3.65540   3.66150   3.77116
 Alpha virt. eigenvalues --    3.81705   3.92153   3.95033   3.98313   4.03783
 Alpha virt. eigenvalues --    4.19532   4.24416   4.25613   4.34473   4.37236
 Alpha virt. eigenvalues --    4.41853   4.47354   4.53764   4.57607   4.79025
 Alpha virt. eigenvalues --    5.14734   5.16294   5.18571   5.22209   5.29992
 Alpha virt. eigenvalues --    5.35296   5.41636   5.43393   5.46086   5.50190
 Alpha virt. eigenvalues --    5.80618   5.87219   6.04099   6.24737   6.43462
 Alpha virt. eigenvalues --    6.45259   6.56336   6.60410   6.62385   6.69891
 Alpha virt. eigenvalues --    6.78548   6.82490   6.86596   6.95069   7.07915
 Alpha virt. eigenvalues --    7.17280   7.23245  12.07806  22.37243  22.41231
 Alpha virt. eigenvalues --   22.45974  43.69820  43.95484
          Condensed to atoms (all electrons):
              1          2          3          4          5          6
     1  H    0.549967   0.409164  -0.033080  -0.025281  -0.024265  -0.006840
     2  C    0.409164   4.942323   0.309072   0.401596   0.413631  -0.031239
     3  C   -0.033080   0.309072   5.058544  -0.045667  -0.040689   0.386072
     4  H   -0.025281   0.401596  -0.045667   0.592597  -0.028762  -0.004927
     5  H   -0.024265   0.413631  -0.040689  -0.028762   0.532794   0.007881
     6  H   -0.006840  -0.031239   0.386072  -0.004927   0.007881   0.581828
     7  Si   0.007333  -0.017944   0.426167  -0.007326  -0.007297  -0.027200
     8  H   -0.007116  -0.026735   0.368656   0.008959  -0.004104  -0.025696
     9  O   -0.000028  -0.002058  -0.042793   0.003873  -0.000439  -0.001304
    10  O    0.000005  -0.004766  -0.031774   0.000457   0.007469   0.001297
    11  H   -0.000112   0.002035  -0.036827   0.000209   0.000425   0.001574
    12  H   -0.000127   0.001173  -0.002827   0.002609   0.000074   0.000094
    13  C    0.000009  -0.000038   0.002305   0.000079  -0.000112  -0.000130
    14  H   -0.000004   0.000222  -0.000440  -0.000001  -0.000164  -0.000001
    15  H    0.000000  -0.000033  -0.000109  -0.000001   0.000084   0.000006
    16  H    0.000001  -0.000153   0.000878  -0.000011   0.000023   0.000014
              7          8          9         10         11         12
     1  H    0.007333  -0.007116  -0.000028   0.000005  -0.000112  -0.000127
     2  C   -0.017944  -0.026735  -0.002058  -0.004766   0.002035   0.001173
     3  C    0.426167   0.368656  -0.042793  -0.031774  -0.036827  -0.002827
     4  H   -0.007326   0.008959   0.003873   0.000457   0.000209   0.002609
     5  H   -0.007297  -0.004104  -0.000439   0.007469   0.000425   0.000074
     6  H   -0.027200  -0.025696  -0.001304   0.001297   0.001574   0.000094
     7  Si  11.874427  -0.014753   0.512225   0.454771   0.390239  -0.033412
     8  H   -0.014753   0.579997   0.002204   0.001836   0.000888   0.000029
     9  O    0.512225   0.002204   7.734420  -0.040833  -0.017910   0.307494
    10  O    0.454771   0.001836  -0.040833   7.853970  -0.027279  -0.001783
    11  H    0.390239   0.000888  -0.017910  -0.027279   0.747384   0.005294
    12  H   -0.033412   0.000029   0.307494  -0.001783   0.005294   0.395247
    13  C   -0.048272   0.000054  -0.006799   0.262756   0.002412   0.000968
    14  H    0.007252   0.000002   0.000050  -0.041333  -0.000240   0.000023
    15  H   -0.017661  -0.000014  -0.000591  -0.042937   0.010698  -0.000074
    16  H   -0.005619  -0.000019   0.006515  -0.045188  -0.002117   0.000537
             13         14         15         16
     1  H    0.000009  -0.000004   0.000000   0.000001
     2  C   -0.000038   0.000222  -0.000033  -0.000153
     3  C    0.002305  -0.000440  -0.000109   0.000878
     4  H    0.000079  -0.000001  -0.000001  -0.000011
     5  H   -0.000112  -0.000164   0.000084   0.000023
     6  H   -0.000130  -0.000001   0.000006   0.000014
     7  Si  -0.048272   0.007252  -0.017661  -0.005619
     8  H    0.000054   0.000002  -0.000014  -0.000019
     9  O   -0.006799   0.000050  -0.000591   0.006515
    10  O    0.262756  -0.041333  -0.042937  -0.045188
    11  H    0.002412  -0.000240   0.010698  -0.002117
    12  H    0.000968   0.000023  -0.000074   0.000537
    13  C    4.763674   0.404068   0.418124   0.411669
    14  H    0.404068   0.567285  -0.030373  -0.034573
    15  H    0.418124  -0.030373   0.594435  -0.049028
    16  H    0.411669  -0.034573  -0.049028   0.602449
 Mulliken atomic charges:
              1
     1  H    0.130374
     2  C   -0.396252
     3  C   -0.317488
     4  H    0.101597
     5  H    0.143452
     6  H    0.118570
     7  Si   0.507069
     8  H    0.115811
     9  O   -0.454024
    10  O   -0.346668
    11  H   -0.076674
    12  H    0.324680
    13  C   -0.210768
    14  H    0.128228
    15  H    0.117473
    16  H    0.114619
 Sum of Mulliken atomic charges =   0.00000
 Mulliken charges with hydrogens summed into heavy atoms:
              1
     2  C   -0.020829
     3  C   -0.083107
     7  Si   0.430395
     9  O   -0.129344
    10  O   -0.346668
    13  C    0.149552
 Sum of Mulliken charges with hydrogens summed into heavy atoms =   0.00000
 Electronic spatial extent (au):  <R**2>=            853.4125
 Charge=              0.0000 electrons
 Dipole moment (field-independent basis, Debye):
    X=             -0.2691    Y=             -0.2444    Z=             -1.2060  Tot=              1.2596
 Quadrupole moment (field-independent basis, Debye-Ang):
   XX=            -41.5084   YY=            -48.6045   ZZ=            -42.8690
   XY=             -1.5502   XZ=             -0.1716   YZ=             -1.7585
 Traceless Quadrupole moment (field-independent basis, Debye-Ang):
   XX=              2.8189   YY=             -4.2772   ZZ=              1.4583
   XY=             -1.5502   XZ=             -0.1716   YZ=             -1.7585
 Octapole moment (field-independent basis, Debye-Ang**2):
  XXX=             14.5230  YYY=             -4.3647  ZZZ=            -11.8404  XYY=             -0.4185
  XXY=             -1.6380  XXZ=             -1.2710  XZZ=              0.5213  YZZ=              4.4105
  YYZ=             -2.9567  XYZ=              1.6351
 Hexadecapole moment (field-independent basis, Debye-Ang**3):
 XXXX=           -709.8659 YYYY=           -274.5260 ZZZZ=           -159.8471 XXXY=            -12.2445
 XXXZ=             -5.5128 YYYX=            -11.5819 YYYZ=             -5.9553 ZZZX=             -2.2849
 ZZZY=            -20.6653 XXYY=           -160.4232 XXZZ=           -151.2438 YYZZ=            -65.8083
 XXYZ=             -1.8481 YYXZ=             -1.7827 ZZXY=             -4.8200
 N-N= 3.341874647176D+02 E-N=-1.992662100073D+03  KE= 5.585506453103D+02
 1\1\GINC-TARSUS2\SP\RPBE1PBE\def2TZVP\C3H10O2Si1\RENATO\09-Aug-2018\0\
 \#SP PBE1PBE/Def2TZVP geom=connectivity\\Structure: 112\\0,1\H,0,0.,0.
 ,0.\C,0,1.093,0.,0.\C,0,1.655,1.421,0.\H,0,1.41,-0.56,-0.885\H,0,1.424
 ,-0.557,0.88\H,0,1.308,1.969,-0.883\Si,0,3.513,1.515,0.035\H,0,1.282,1
 .975,0.868\O,0,4.165,0.832,-1.163\O,0,3.968,0.824,1.454\H,0,4.029,2.90
 6,-0.04\H,0,3.926,-0.08,-1.337\C,0,5.301,0.766,1.905\H,0,5.308,0.322,2
 .902\H,0,5.747,1.766,1.967\H,0,5.921,0.153,1.244\\Version=EM64L-G09Rev
 C.01\State=1-A\HF=-560.0503357\RMSD=9.617e-09\Dipole=-0.0511796,-0.489
 3991,-0.0588899\Quadrupole=0.7290069,0.0680073,-0.7970142,-1.192991,2.
 2389525,1.9677459\PG=C01 [X(C3H10O2Si1)]\\@



 IN THIS SHORT LIFE

 THAT ONLY LASTS AN HOUR

 HOW MUCH, HOW LITTLE, IS WITHIN OUR POWER....


 EMILY DICKINSON BOLTS OF MELODY NO. 521
 Job cpu time:  0 days  0 hours 13 minutes  3.1 seconds.
 File lengths (MBytes):  RWF=     40 Int=      0 D2E=      0 Chk=      3 Scr=      1
 Normal termination of Gaussian 09 at Thu Aug  9 22:51:09 2018.
