 Entering Gaussian System, Link 0=g09
 Initial command:
 /usr/local/gaussian09/g09/l1.exe /scratch/renato/Gau-9082.inp -scrdir=/scratch/renato/
 Entering Link 1 = /usr/local/gaussian09/g09/l1.exe PID=      9084.
  
 Copyright (c) 1988,1990,1992,1993,1995,1998,2003,2009,2011,
            Gaussian, Inc.  All Rights Reserved.
  
 This is part of the Gaussian(R) 09 program.  It is based on
 the Gaussian(R) 03 system (copyright 2003, Gaussian, Inc.),
 the Gaussian(R) 98 system (copyright 1998, Gaussian, Inc.),
 the Gaussian(R) 94 system (copyright 1995, Gaussian, Inc.),
 the Gaussian 92(TM) system (copyright 1992, Gaussian, Inc.),
 the Gaussian 90(TM) system (copyright 1990, Gaussian, Inc.),
 the Gaussian 88(TM) system (copyright 1988, Gaussian, Inc.),
 the Gaussian 86(TM) system (copyright 1986, Carnegie Mellon
 University), and the Gaussian 82(TM) system (copyright 1983,
 Carnegie Mellon University). Gaussian is a federally registered
 trademark of Gaussian, Inc.
  
 This software contains proprietary and confidential information,
 including trade secrets, belonging to Gaussian, Inc.
  
 This software is provided under written license and may be
 used, copied, transmitted, or stored only in accord with that
 written license.
  
 The following legend is applicable only to US Government
 contracts under FAR:
  
                    RESTRICTED RIGHTS LEGEND
  
 Use, reproduction and disclosure by the US Government is
 subject to restrictions as set forth in subparagraphs (a)
 and (c) of the Commercial Computer Software - Restricted
 Rights clause in FAR 52.227-19.
  
 Gaussian, Inc.
 340 Quinnipiac St., Bldg. 40, Wallingford CT 06492
  
  
 ---------------------------------------------------------------
 Warning -- This program may not be used in any manner that
 competes with the business of Gaussian, Inc. or will provide
 assistance to any competitor of Gaussian, Inc.  The licensee
 of this program is prohibited from giving any competitor of
 Gaussian, Inc. access to this program.  By using this program,
 the user acknowledges that Gaussian, Inc. is engaged in the
 business of creating and licensing software in the field of
 computational chemistry and represents and warrants to the
 licensee that it is not a competitor of Gaussian, Inc. and that
 it will not use this program in any manner prohibited above.
 ---------------------------------------------------------------
  

 Cite this work as:
 Gaussian 09, Revision C.01,
 M. J. Frisch, G. W. Trucks, H. B. Schlegel, G. E. Scuseria, 
 M. A. Robb, J. R. Cheeseman, G. Scalmani, V. Barone, B. Mennucci, 
 G. A. Petersson, H. Nakatsuji, M. Caricato, X. Li, H. P. Hratchian, 
 A. F. Izmaylov, J. Bloino, G. Zheng, J. L. Sonnenberg, M. Hada, 
 M. Ehara, K. Toyota, R. Fukuda, J. Hasegawa, M. Ishida, T. Nakajima, 
 Y. Honda, O. Kitao, H. Nakai, T. Vreven, J. A. Montgomery, Jr., 
 J. E. Peralta, F. Ogliaro, M. Bearpark, J. J. Heyd, E. Brothers, 
 K. N. Kudin, V. N. Staroverov, T. Keith, R. Kobayashi, J. Normand, 
 K. Raghavachari, A. Rendell, J. C. Burant, S. S. Iyengar, J. Tomasi, 
 M. Cossi, N. Rega, J. M. Millam, M. Klene, J. E. Knox, J. B. Cross, 
 V. Bakken, C. Adamo, J. Jaramillo, R. Gomperts, R. E. Stratmann, 
 O. Yazyev, A. J. Austin, R. Cammi, C. Pomelli, J. W. Ochterski, 
 R. L. Martin, K. Morokuma, V. G. Zakrzewski, G. A. Voth, 
 P. Salvador, J. J. Dannenberg, S. Dapprich, A. D. Daniels, 
 O. Farkas, J. B. Foresman, J. V. Ortiz, J. Cioslowski, 
 and D. J. Fox, Gaussian, Inc., Wallingford CT, 2010.
 
 ******************************************
 Gaussian 09:  EM64L-G09RevC.01 23-Sep-2011
                10-Aug-2018 
 ******************************************
 %nproc=2
 Will use up to    2 processors via shared memory.
 %mem=256MB
 %RWF=bm3.rwf
 %chk=bm3263
 %NoSave
 --------------------------------------
 #SP PBE1PBE/Def2TZVP geom=connectivity
 --------------------------------------
 1/38=1,57=2/1;
 2/12=2,17=6,18=5,40=1/2;
 3/5=44,7=101,11=2,16=1,25=1,30=1,74=-13/1,2,3;
 4//1;
 5/5=2,38=5/2;
 6/7=2,8=2,9=2,10=2,28=1/1;
 99/5=1,9=1/99;
 --------------
 Structure: 263
 --------------
 Charge =  0 Multiplicity = 1
 Symbolic Z-Matrix:
 H                     0.        0.        0. 
 C                     1.093     0.        0. 
 C                     1.655     1.421     0. 
 H                     1.41     -0.56     -0.885 
 H                     1.424    -0.557     0.88 
 H                     1.308     1.969    -0.883 
 Si                    3.513     1.515     0.035 
 H                     1.282     1.975     0.868 
 O                     4.294     0.696    -1.4 
 O                     3.968     0.824     1.454 
 H                     4.029     2.906    -0.04 
 H                     4.055    -0.215    -1.574 
 C                     5.301     0.766     1.905 
 H                     5.308     0.322     2.902 
 H                     5.747     1.766     1.967 
 H                     5.921     0.153     1.244 
 
                          Input orientation:                          
 ---------------------------------------------------------------------
 Center     Atomic      Atomic             Coordinates (Angstroms)
 Number     Number       Type             X           Y           Z
 ---------------------------------------------------------------------
      1          1           0        0.000000    0.000000    0.000000
      2          6           0        1.093000    0.000000    0.000000
      3          6           0        1.655000    1.421000    0.000000
      4          1           0        1.410000   -0.560000   -0.885000
      5          1           0        1.424000   -0.557000    0.880000
      6          1           0        1.308000    1.969000   -0.883000
      7         14           0        3.513000    1.515000    0.035000
      8          1           0        1.282000    1.975000    0.868000
      9          8           0        4.294000    0.696000   -1.400000
     10          8           0        3.968000    0.824000    1.454000
     11          1           0        4.029000    2.906000   -0.040000
     12          1           0        4.055000   -0.215000   -1.574000
     13          6           0        5.301000    0.766000    1.905000
     14          1           0        5.308000    0.322000    2.902000
     15          1           0        5.747000    1.766000    1.967000
     16          1           0        5.921000    0.153000    1.244000
 ---------------------------------------------------------------------
                    Distance matrix (angstroms):
                    1          2          3          4          5
     1  H    0.000000
     2  C    1.093000   0.000000
     3  C    2.181345   1.528098   0.000000
     4  H    1.756395   1.094218   2.183486   0.000000
     5  H    1.764207   1.092799   2.177210   1.765058   0.000000
     6  H    2.523393   2.168611   1.095629   2.531057   3.082580
     7  Si   3.825914   2.855320   1.860706   3.094291   3.061230
     8  H    2.509497   2.165588   1.095203   3.084740   2.536007
     9  O    4.569776   3.562417   3.074076   3.187510   3.873669
    10  O    4.305591   3.325465   2.796515   3.732257   2.951029
    11  H    4.967824   4.131166   2.800482   4.425646   4.429988
    12  H    4.355080   3.361123   3.303630   2.754954   3.614034
    13  C    5.684750   4.682205   4.165497   4.968124   4.222805
    14  H    6.058065   5.127525   4.793101   5.505788   4.466160
    15  H    6.325809   5.352342   4.553304   5.688036   5.026552
    16  H    6.052205   4.988039   4.621051   5.038862   4.567232
                    6          7          8          9         10
     6  H    0.000000
     7  Si   2.431227   0.000000
     8  H    1.751203   2.425459   0.000000
     9  O    3.286946   1.827552   3.981433   0.000000
    10  O    3.721316   1.642579   2.980401   2.875409   0.000000
    11  H    2.998743   1.485517   3.039282   2.608433   2.563295
    12  H    3.576779   2.423952   4.295229   0.957767   3.202479
    13  C    5.016393   2.693482   4.323125   3.455716   1.408423
    14  H    5.747942   3.586776   4.803982   4.435682   2.035757
    15  H    5.279056   2.964183   4.603011   3.820052   2.077348
    16  H    5.394604   3.019137   4.998138   3.151621   2.075705
                   11         12         13         14         15
    11  H    0.000000
    12  H    3.477711   0.000000
    13  C    3.159210   3.823391   0.000000
    14  H    4.119255   4.678991   1.091418   0.000000
    15  H    2.877355   4.396124   1.096704   1.775410   0.000000
    16  H    3.578733   3.399780   1.094116   1.775752   1.776168
                   16
    16  H    0.000000
 Stoichiometry    C3H10O2Si
 Framework group  C1[X(C3H10O2Si)]
 Deg. of freedom    42
 Full point group                 C1      NOp   1
 Largest Abelian subgroup         C1      NOp   1
 Largest concise Abelian subgroup C1      NOp   1
                         Standard orientation:                         
 ---------------------------------------------------------------------
 Center     Atomic      Atomic             Coordinates (Angstroms)
 Number     Number       Type             X           Y           Z
 ---------------------------------------------------------------------
      1          1           0       -3.234505   -1.161285   -0.585522
      2          6           0       -2.237797   -0.728626   -0.703959
      3          6           0       -1.624804   -0.351980    0.644173
      4          1           0       -2.346109    0.143114   -1.356380
      5          1           0       -1.619597   -1.460496   -1.229702
      6          1           0       -2.259443    0.375315    1.162513
      7         14           0        0.090308    0.361783    0.538532
      8          1           0       -1.574855   -1.231036    1.295506
      9          8           0        0.164452    1.890630   -0.460005
     10          8           0        1.030007   -0.827047   -0.095279
     11          1           0        0.628912    0.785357    1.856582
     12          1           0       -0.188268    1.855846   -1.349779
     13          6           0        2.423794   -0.716938   -0.265237
     14          1           0        2.801830   -1.671492   -0.635522
     15          1           0        2.926295   -0.488426    0.682410
     16          1           0        2.678596    0.064730   -0.987152
 ---------------------------------------------------------------------
 Rotational constants (GHZ):      3.7322195      1.8872222      1.5382360
 Standard basis: def2TZVP (5D, 7F)
 There are   252 symmetry adapted basis functions of A   symmetry.
 Integral buffers will be    131072 words long.
 Raffenetti 2 integral format.
 Two-electron integral symmetry is turned on.
   252 basis functions,   404 primitive gaussians,   282 cartesian basis functions
    29 alpha electrons       29 beta electrons
       nuclear repulsion energy       323.7520010598 Hartrees.
 NAtoms=   16 NActive=   16 NUniq=   16 SFac= 1.00D+00 NAtFMM=   60 NAOKFM=F Big=F
 One-electron integrals computed using PRISM.
   1 Symmetry operations used in ECPInt.
 ECPInt:  NShTT=    5886 NPrTT=   17754 LenC2=    5775 LenP2D=   13871.
 LDataN:  DoStor=T MaxTD1= 6 Len=  172
 NBasis=   252 RedAO= T  NBF=   252
 NBsUse=   252 1.00D-06 NBFU=   252
 Harris functional with IExCor= 1009 diagonalized for initial guess.
 ExpMin= 7.01D-02 ExpMax= 4.48D+04 ExpMxC= 1.53D+03 IAcc=2 IRadAn=         4 AccDes= 0.00D+00
 HarFok:  IExCor= 1009 AccDes= 0.00D+00 IRadAn=         4 IDoV= 1
 ScaDFX=  1.000000  1.000000  1.000000  1.000000
 FoFCou: FMM=F IPFlag=           0 FMFlag=      100000 FMFlg1=           0
         NFxFlg=           0 DoJE=T BraDBF=F KetDBF=T FulRan=T
         Omega=  0.000000  0.000000  1.000000  0.000000  0.000000 ICntrl=     500 IOpCl=  0
         NMat0=    1 NMatS0=    1 NMatT0=    0 NMatD0=    1 NMtDS0=    0 NMtDT0=    0
         I1Cent=           4 NGrid=           0.
 Petite list used in FoFCou.
 Initial guess orbital symmetries:
       Occupied  (A) (A) (A) (A) (A) (A) (A) (A) (A) (A) (A) (A)
                 (A) (A) (A) (A) (A) (A) (A) (A) (A) (A) (A) (A)
                 (A) (A) (A) (A) (A)
       Virtual   (A) (A) (A) (A) (A) (A) (A) (A) (A) (A) (A) (A)
                 (A) (A) (A) (A) (A) (A) (A) (A) (A) (A) (A) (A)
                 (A) (A) (A) (A) (A) (A) (A) (A) (A) (A) (A) (A)
                 (A) (A) (A) (A) (A) (A) (A) (A) (A) (A) (A) (A)
                 (A) (A) (A) (A) (A) (A) (A) (A) (A) (A) (A) (A)
                 (A) (A) (A) (A) (A) (A) (A) (A) (A) (A) (A) (A)
                 (A) (A) (A) (A) (A) (A) (A) (A) (A) (A) (A) (A)
                 (A) (A) (A) (A) (A) (A) (A) (A) (A) (A) (A) (A)
                 (A) (A) (A) (A) (A) (A) (A) (A) (A) (A) (A) (A)
                 (A) (A) (A) (A) (A) (A) (A) (A) (A) (A) (A) (A)
                 (A) (A) (A) (A) (A) (A) (A) (A) (A) (A) (A) (A)
                 (A) (A) (A) (A) (A) (A) (A) (A) (A) (A) (A) (A)
                 (A) (A) (A) (A) (A) (A) (A) (A) (A) (A) (A) (A)
                 (A) (A) (A) (A) (A) (A) (A) (A) (A) (A) (A) (A)
                 (A) (A) (A) (A) (A) (A) (A) (A) (A) (A) (A) (A)
                 (A) (A) (A) (A) (A) (A) (A) (A) (A) (A) (A) (A)
                 (A) (A) (A) (A) (A) (A) (A) (A) (A) (A) (A) (A)
                 (A) (A) (A) (A) (A) (A) (A) (A) (A) (A) (A) (A)
                 (A) (A) (A) (A) (A) (A) (A)
 The electronic state of the initial guess is 1-A.
 Requested convergence on RMS density matrix=1.00D-08 within 128 cycles.
 Requested convergence on MAX density matrix=1.00D-06.
 Requested convergence on             energy=1.00D-06.
 No special actions if energy rises.
 Integral accuracy reduced to 1.0D-05 until final iterations.
 Initial convergence to 1.0D-05 achieved.  Increase integral accuracy.
 SCF Done:  E(RPBE1PBE) =  -560.047865557     A.U. after   13 cycles
             Convg  =    0.5216D-08             -V/T =  2.0037

 **********************************************************************

            Population analysis using the SCF density.

 **********************************************************************

 Orbital symmetries:
       Occupied  (A) (A) (A) (A) (A) (A) (A) (A) (A) (A) (A) (A)
                 (A) (A) (A) (A) (A) (A) (A) (A) (A) (A) (A) (A)
                 (A) (A) (A) (A) (A)
       Virtual   (A) (A) (A) (A) (A) (A) (A) (A) (A) (A) (A) (A)
                 (A) (A) (A) (A) (A) (A) (A) (A) (A) (A) (A) (A)
                 (A) (A) (A) (A) (A) (A) (A) (A) (A) (A) (A) (A)
                 (A) (A) (A) (A) (A) (A) (A) (A) (A) (A) (A) (A)
                 (A) (A) (A) (A) (A) (A) (A) (A) (A) (A) (A) (A)
                 (A) (A) (A) (A) (A) (A) (A) (A) (A) (A) (A) (A)
                 (A) (A) (A) (A) (A) (A) (A) (A) (A) (A) (A) (A)
                 (A) (A) (A) (A) (A) (A) (A) (A) (A) (A) (A) (A)
                 (A) (A) (A) (A) (A) (A) (A) (A) (A) (A) (A) (A)
                 (A) (A) (A) (A) (A) (A) (A) (A) (A) (A) (A) (A)
                 (A) (A) (A) (A) (A) (A) (A) (A) (A) (A) (A) (A)
                 (A) (A) (A) (A) (A) (A) (A) (A) (A) (A) (A) (A)
                 (A) (A) (A) (A) (A) (A) (A) (A) (A) (A) (A) (A)
                 (A) (A) (A) (A) (A) (A) (A) (A) (A) (A) (A) (A)
                 (A) (A) (A) (A) (A) (A) (A) (A) (A) (A) (A) (A)
                 (A) (A) (A) (A) (A) (A) (A) (A) (A) (A) (A) (A)
                 (A) (A) (A) (A) (A) (A) (A) (A) (A) (A) (A) (A)
                 (A) (A) (A) (A) (A) (A) (A) (A) (A) (A) (A) (A)
                 (A) (A) (A) (A) (A) (A) (A)
 The electronic state is 1-A.
 Alpha  occ. eigenvalues --  -66.27335 -19.20871 -19.19025 -10.26775 -10.21919
 Alpha  occ. eigenvalues --  -10.21593  -5.34683  -3.68216  -3.68109  -3.67947
 Alpha  occ. eigenvalues --   -1.04671  -0.98940  -0.78608  -0.70945  -0.64414
 Alpha  occ. eigenvalues --   -0.55150  -0.50053  -0.47222  -0.46926  -0.46065
 Alpha  occ. eigenvalues --   -0.43848  -0.41554  -0.38160  -0.36789  -0.36129
 Alpha  occ. eigenvalues --   -0.34221  -0.31666  -0.30724  -0.30138
 Alpha virt. eigenvalues --    0.02093   0.04825   0.05608   0.07687   0.08809
 Alpha virt. eigenvalues --    0.09671   0.10222   0.10799   0.12075   0.13065
 Alpha virt. eigenvalues --    0.13459   0.14880   0.15442   0.15982   0.18935
 Alpha virt. eigenvalues --    0.20940   0.21760   0.22888   0.24258   0.24821
 Alpha virt. eigenvalues --    0.26541   0.26960   0.28615   0.29590   0.30679
 Alpha virt. eigenvalues --    0.32396   0.36539   0.39102   0.39923   0.40562
 Alpha virt. eigenvalues --    0.41741   0.42307   0.43864   0.44995   0.45403
 Alpha virt. eigenvalues --    0.45851   0.47256   0.47772   0.49346   0.49768
 Alpha virt. eigenvalues --    0.50458   0.53227   0.55299   0.56555   0.60549
 Alpha virt. eigenvalues --    0.60708   0.62541   0.63940   0.65619   0.68116
 Alpha virt. eigenvalues --    0.72756   0.73805   0.74275   0.76840   0.79894
 Alpha virt. eigenvalues --    0.81838   0.83477   0.86098   0.87533   0.91634
 Alpha virt. eigenvalues --    0.93074   0.95050   0.96190   0.98924   1.00655
 Alpha virt. eigenvalues --    1.02914   1.05149   1.06573   1.08238   1.11225
 Alpha virt. eigenvalues --    1.11877   1.12939   1.14935   1.18228   1.19529
 Alpha virt. eigenvalues --    1.23498   1.26990   1.32078   1.35836   1.40288
 Alpha virt. eigenvalues --    1.41014   1.45504   1.46498   1.50120   1.51949
 Alpha virt. eigenvalues --    1.53061   1.54112   1.54684   1.55751   1.57463
 Alpha virt. eigenvalues --    1.59227   1.61241   1.62523   1.62936   1.64762
 Alpha virt. eigenvalues --    1.66890   1.69604   1.73615   1.75892   1.78078
 Alpha virt. eigenvalues --    1.80178   1.82739   1.86300   1.89396   1.90480
 Alpha virt. eigenvalues --    1.93955   1.94829   1.98388   1.98980   2.01383
 Alpha virt. eigenvalues --    2.03147   2.06706   2.08545   2.11957   2.13231
 Alpha virt. eigenvalues --    2.16253   2.17317   2.25612   2.27213   2.29520
 Alpha virt. eigenvalues --    2.30427   2.31307   2.32709   2.34825   2.35292
 Alpha virt. eigenvalues --    2.35499   2.39536   2.42407   2.46368   2.48197
 Alpha virt. eigenvalues --    2.50518   2.50860   2.54276   2.55808   2.57918
 Alpha virt. eigenvalues --    2.58996   2.60903   2.64347   2.66556   2.70180
 Alpha virt. eigenvalues --    2.72065   2.75514   2.78831   2.80312   2.82551
 Alpha virt. eigenvalues --    2.83680   2.91886   2.92715   2.97919   2.99548
 Alpha virt. eigenvalues --    3.04084   3.08301   3.09427   3.11067   3.14443
 Alpha virt. eigenvalues --    3.19114   3.22025   3.22485   3.25903   3.29481
 Alpha virt. eigenvalues --    3.31153   3.32281   3.35520   3.38846   3.39986
 Alpha virt. eigenvalues --    3.44071   3.45376   3.45726   3.52426   3.53487
 Alpha virt. eigenvalues --    3.57572   3.59352   3.61826   3.64648   3.76260
 Alpha virt. eigenvalues --    3.80781   3.83745   3.92050   3.95272   4.02417
 Alpha virt. eigenvalues --    4.18598   4.23804   4.24456   4.33853   4.36512
 Alpha virt. eigenvalues --    4.41408   4.46455   4.52943   4.56518   4.78226
 Alpha virt. eigenvalues --    5.12973   5.17280   5.17690   5.18544   5.24641
 Alpha virt. eigenvalues --    5.28437   5.37280   5.40700   5.45533   5.51118
 Alpha virt. eigenvalues --    5.78822   5.85601   6.02824   6.21962   6.35475
 Alpha virt. eigenvalues --    6.40215   6.50089   6.54636   6.56076   6.59601
 Alpha virt. eigenvalues --    6.60905   6.76154   6.80459   6.90095   7.04522
 Alpha virt. eigenvalues --    7.11764   7.18217  11.65961  22.36727  22.40516
 Alpha virt. eigenvalues --   22.44489  43.53508  43.93184
          Condensed to atoms (all electrons):
              1          2          3          4          5          6
     1  H    0.552388   0.406508  -0.033814  -0.025082  -0.024891  -0.006894
     2  C    0.406508   4.942554   0.319460   0.398858   0.411751  -0.026417
     3  C   -0.033814   0.319460   5.004371  -0.042873  -0.038255   0.388724
     4  H   -0.025082   0.398858  -0.042873   0.575105  -0.025970  -0.004970
     5  H   -0.024891   0.411751  -0.038255  -0.025970   0.534563   0.007570
     6  H   -0.006894  -0.026417   0.388724  -0.004970   0.007570   0.572920
     7  Si   0.008236  -0.023739   0.416419  -0.003114  -0.009597  -0.030424
     8  H   -0.006558  -0.029667   0.371714   0.008768  -0.004069  -0.027284
     9  O    0.000045  -0.005135  -0.029302   0.005691  -0.000331  -0.000731
    10  O    0.000027  -0.005234  -0.030496   0.000378   0.007686   0.001334
    11  H   -0.000119   0.001516  -0.033103   0.000209   0.000382   0.001080
    12  H   -0.000051  -0.000373  -0.001495   0.001711  -0.000019   0.000034
    13  C    0.000013  -0.000199   0.001571   0.000132   0.000003  -0.000124
    14  H   -0.000004   0.000228  -0.000393  -0.000005  -0.000164   0.000000
    15  H    0.000001  -0.000050   0.000049  -0.000002   0.000080   0.000003
    16  H    0.000000  -0.000086   0.000752  -0.000022  -0.000004   0.000014
              7          8          9         10         11         12
     1  H    0.008236  -0.006558   0.000045   0.000027  -0.000119  -0.000051
     2  C   -0.023739  -0.029667  -0.005135  -0.005234   0.001516  -0.000373
     3  C    0.416419   0.371714  -0.029302  -0.030496  -0.033103  -0.001495
     4  H   -0.003114   0.008768   0.005691   0.000378   0.000209   0.001711
     5  H   -0.009597  -0.004069  -0.000331   0.007686   0.000382  -0.000019
     6  H   -0.030424  -0.027284  -0.000731   0.001334   0.001080   0.000034
     7  Si  11.937156  -0.013017   0.405509   0.446743   0.390957  -0.024155
     8  H   -0.013017   0.575036   0.001570   0.001768   0.000835  -0.000074
     9  O    0.405509   0.001570   7.976514  -0.026662  -0.013781   0.290851
    10  O    0.446743   0.001768  -0.026662   7.826188  -0.025063  -0.000512
    11  H    0.390957   0.000835  -0.013781  -0.025063   0.711302   0.002955
    12  H   -0.024155  -0.000074   0.290851  -0.000512   0.002955   0.418729
    13  C   -0.052348   0.000121  -0.007116   0.260463   0.002466   0.000453
    14  H    0.008362   0.000000   0.000139  -0.040628  -0.000212   0.000015
    15  H   -0.017582  -0.000025  -0.000360  -0.042145   0.009382   0.000014
    16  H   -0.003095  -0.000018   0.007178  -0.042455  -0.001764   0.000105
             13         14         15         16
     1  H    0.000013  -0.000004   0.000001   0.000000
     2  C   -0.000199   0.000228  -0.000050  -0.000086
     3  C    0.001571  -0.000393   0.000049   0.000752
     4  H    0.000132  -0.000005  -0.000002  -0.000022
     5  H    0.000003  -0.000164   0.000080  -0.000004
     6  H   -0.000124   0.000000   0.000003   0.000014
     7  Si  -0.052348   0.008362  -0.017582  -0.003095
     8  H    0.000121   0.000000  -0.000025  -0.000018
     9  O   -0.007116   0.000139  -0.000360   0.007178
    10  O    0.260463  -0.040628  -0.042145  -0.042455
    11  H    0.002466  -0.000212   0.009382  -0.001764
    12  H    0.000453   0.000015   0.000014   0.000105
    13  C    4.777660   0.400200   0.417755   0.412046
    14  H    0.400200   0.565307  -0.030364  -0.032228
    15  H    0.417755  -0.030364   0.591098  -0.045823
    16  H    0.412046  -0.032228  -0.045823   0.578416
 Mulliken atomic charges:
              1
     1  H    0.130194
     2  C   -0.389976
     3  C   -0.293328
     4  H    0.111184
     5  H    0.141266
     6  H    0.125166
     7  Si   0.563689
     8  H    0.120899
     9  O   -0.604080
    10  O   -0.331391
    11  H   -0.047040
    12  H    0.311810
    13  C   -0.213096
    14  H    0.129748
    15  H    0.117970
    16  H    0.126984
 Sum of Mulliken atomic charges =   0.00000
 Mulliken charges with hydrogens summed into heavy atoms:
              1
     2  C   -0.007332
     3  C   -0.047263
     7  Si   0.516649
     9  O   -0.292270
    10  O   -0.331391
    13  C    0.161606
 Sum of Mulliken charges with hydrogens summed into heavy atoms =   0.00000
 Electronic spatial extent (au):  <R**2>=            888.2823
 Charge=              0.0000 electrons
 Dipole moment (field-independent basis, Debye):
    X=             -0.3034    Y=             -1.1676    Z=             -0.5159  Tot=              1.3121
 Quadrupole moment (field-independent basis, Debye-Ang):
   XX=            -40.6734   YY=            -50.4498   ZZ=            -42.7915
   XY=             -1.8176   XZ=             -0.2557   YZ=             -1.8408
 Traceless Quadrupole moment (field-independent basis, Debye-Ang):
   XX=              3.9648   YY=             -5.8115   ZZ=              1.8467
   XY=             -1.8176   XZ=             -0.2557   YZ=             -1.8408
 Octapole moment (field-independent basis, Debye-Ang**2):
  XXX=             14.3014  YYY=             -9.6769  ZZZ=             -9.0491  XYY=             -1.5811
  XXY=             -2.7883  XXZ=             -1.4033  XZZ=              0.8019  YZZ=              5.4814
  YYZ=             -4.4048  XYZ=              2.0700
 Hexadecapole moment (field-independent basis, Debye-Ang**3):
 XXXX=           -699.1171 YYYY=           -319.5425 ZZZZ=           -174.0756 XXXY=            -12.4015
 XXXZ=             -7.7021 YYYX=            -13.1019 YYYZ=             -9.9504 ZZZX=             -3.2709
 ZZZY=            -17.3305 XXYY=           -165.9366 XXZZ=           -150.5404 YYZZ=            -66.7127
 XXYZ=              0.1237 YYXZ=             -1.1010 ZZXY=             -5.0043
 N-N= 3.237520010598D+02 E-N=-1.971164883267D+03  KE= 5.579825102040D+02
 1\1\GINC-TARSUS2\SP\RPBE1PBE\def2TZVP\C3H10O2Si1\RENATO\10-Aug-2018\0\
 \#SP PBE1PBE/Def2TZVP geom=connectivity\\Structure: 263\\0,1\H,0,0.,0.
 ,0.\C,0,1.093,0.,0.\C,0,1.655,1.421,0.\H,0,1.41,-0.56,-0.885\H,0,1.424
 ,-0.557,0.88\H,0,1.308,1.969,-0.883\Si,0,3.513,1.515,0.035\H,0,1.282,1
 .975,0.868\O,0,4.294,0.696,-1.4\O,0,3.968,0.824,1.454\H,0,4.029,2.906,
 -0.04\H,0,4.055,-0.215,-1.574\C,0,5.301,0.766,1.905\H,0,5.308,0.322,2.
 902\H,0,5.747,1.766,1.967\H,0,5.921,0.153,1.244\\Version=EM64L-G09RevC
 .01\State=1-A\HF=-560.0478656\RMSD=5.216e-09\Dipole=-0.2687018,-0.2595
 338,0.3562415\Quadrupole=0.9697521,0.9719324,-1.9416845,-1.0060813,3.3
 655749,1.786037\PG=C01 [X(C3H10O2Si1)]\\@


 THERE'S A SUCKER BORN EVERY MINUTE

              -- PHINEAS TAYLOR (P.T.) BARNUM
 Job cpu time:  0 days  0 hours 13 minutes 41.9 seconds.
 File lengths (MBytes):  RWF=     40 Int=      0 D2E=      0 Chk=      3 Scr=      1
 Normal termination of Gaussian 09 at Fri Aug 10 01:17:25 2018.
