 Entering Gaussian System, Link 0=g09
 Initial command:
 /usr/local/gaussian09/g09/l1.exe /scratch/renato/Gau-5691.inp -scrdir=/scratch/renato/
 Entering Link 1 = /usr/local/gaussian09/g09/l1.exe PID=      5693.
  
 Copyright (c) 1988,1990,1992,1993,1995,1998,2003,2009,2011,
            Gaussian, Inc.  All Rights Reserved.
  
 This is part of the Gaussian(R) 09 program.  It is based on
 the Gaussian(R) 03 system (copyright 2003, Gaussian, Inc.),
 the Gaussian(R) 98 system (copyright 1998, Gaussian, Inc.),
 the Gaussian(R) 94 system (copyright 1995, Gaussian, Inc.),
 the Gaussian 92(TM) system (copyright 1992, Gaussian, Inc.),
 the Gaussian 90(TM) system (copyright 1990, Gaussian, Inc.),
 the Gaussian 88(TM) system (copyright 1988, Gaussian, Inc.),
 the Gaussian 86(TM) system (copyright 1986, Carnegie Mellon
 University), and the Gaussian 82(TM) system (copyright 1983,
 Carnegie Mellon University). Gaussian is a federally registered
 trademark of Gaussian, Inc.
  
 This software contains proprietary and confidential information,
 including trade secrets, belonging to Gaussian, Inc.
  
 This software is provided under written license and may be
 used, copied, transmitted, or stored only in accord with that
 written license.
  
 The following legend is applicable only to US Government
 contracts under FAR:
  
                    RESTRICTED RIGHTS LEGEND
  
 Use, reproduction and disclosure by the US Government is
 subject to restrictions as set forth in subparagraphs (a)
 and (c) of the Commercial Computer Software - Restricted
 Rights clause in FAR 52.227-19.
  
 Gaussian, Inc.
 340 Quinnipiac St., Bldg. 40, Wallingford CT 06492
  
  
 ---------------------------------------------------------------
 Warning -- This program may not be used in any manner that
 competes with the business of Gaussian, Inc. or will provide
 assistance to any competitor of Gaussian, Inc.  The licensee
 of this program is prohibited from giving any competitor of
 Gaussian, Inc. access to this program.  By using this program,
 the user acknowledges that Gaussian, Inc. is engaged in the
 business of creating and licensing software in the field of
 computational chemistry and represents and warrants to the
 licensee that it is not a competitor of Gaussian, Inc. and that
 it will not use this program in any manner prohibited above.
 ---------------------------------------------------------------
  

 Cite this work as:
 Gaussian 09, Revision C.01,
 M. J. Frisch, G. W. Trucks, H. B. Schlegel, G. E. Scuseria, 
 M. A. Robb, J. R. Cheeseman, G. Scalmani, V. Barone, B. Mennucci, 
 G. A. Petersson, H. Nakatsuji, M. Caricato, X. Li, H. P. Hratchian, 
 A. F. Izmaylov, J. Bloino, G. Zheng, J. L. Sonnenberg, M. Hada, 
 M. Ehara, K. Toyota, R. Fukuda, J. Hasegawa, M. Ishida, T. Nakajima, 
 Y. Honda, O. Kitao, H. Nakai, T. Vreven, J. A. Montgomery, Jr., 
 J. E. Peralta, F. Ogliaro, M. Bearpark, J. J. Heyd, E. Brothers, 
 K. N. Kudin, V. N. Staroverov, T. Keith, R. Kobayashi, J. Normand, 
 K. Raghavachari, A. Rendell, J. C. Burant, S. S. Iyengar, J. Tomasi, 
 M. Cossi, N. Rega, J. M. Millam, M. Klene, J. E. Knox, J. B. Cross, 
 V. Bakken, C. Adamo, J. Jaramillo, R. Gomperts, R. E. Stratmann, 
 O. Yazyev, A. J. Austin, R. Cammi, C. Pomelli, J. W. Ochterski, 
 R. L. Martin, K. Morokuma, V. G. Zakrzewski, G. A. Voth, 
 P. Salvador, J. J. Dannenberg, S. Dapprich, A. D. Daniels, 
 O. Farkas, J. B. Foresman, J. V. Ortiz, J. Cioslowski, 
 and D. J. Fox, Gaussian, Inc., Wallingford CT, 2010.
 
 ******************************************
 Gaussian 09:  EM64L-G09RevC.01 23-Sep-2011
                 9-Aug-2018 
 ******************************************
 %nproc=2
 Will use up to    2 processors via shared memory.
 %mem=256MB
 %RWF=bm3.rwf
 %chk=bm3242
 %NoSave
 --------------------------------------
 #SP PBE1PBE/Def2TZVP geom=connectivity
 --------------------------------------
 1/38=1,57=2/1;
 2/12=2,17=6,18=5,40=1/2;
 3/5=44,7=101,11=2,16=1,25=1,30=1,74=-13/1,2,3;
 4//1;
 5/5=2,38=5/2;
 6/7=2,8=2,9=2,10=2,28=1/1;
 99/5=1,9=1/99;
 --------------
 Structure: 242
 --------------
 Charge =  0 Multiplicity = 1
 Symbolic Z-Matrix:
 H                     0.        0.        0. 
 C                     1.093     0.        0. 
 C                     1.655     1.421     0. 
 H                     1.41     -0.56     -0.885 
 H                     1.424    -0.557     0.88 
 H                     1.308     1.969    -0.883 
 Si                    3.513     1.515     0.035 
 H                     1.282     1.975     0.868 
 O                     4.277     0.715    -1.367 
 O                     3.968     0.824     1.454 
 H                     4.029     2.906    -0.04 
 H                     4.037    -0.196    -1.541 
 C                     5.301     0.766     1.905 
 H                     5.308     0.322     2.902 
 H                     5.747     1.766     1.967 
 H                     5.921     0.153     1.244 
 
                          Input orientation:                          
 ---------------------------------------------------------------------
 Center     Atomic      Atomic             Coordinates (Angstroms)
 Number     Number       Type             X           Y           Z
 ---------------------------------------------------------------------
      1          1           0        0.000000    0.000000    0.000000
      2          6           0        1.093000    0.000000    0.000000
      3          6           0        1.655000    1.421000    0.000000
      4          1           0        1.410000   -0.560000   -0.885000
      5          1           0        1.424000   -0.557000    0.880000
      6          1           0        1.308000    1.969000   -0.883000
      7         14           0        3.513000    1.515000    0.035000
      8          1           0        1.282000    1.975000    0.868000
      9          8           0        4.277000    0.715000   -1.367000
     10          8           0        3.968000    0.824000    1.454000
     11          1           0        4.029000    2.906000   -0.040000
     12          1           0        4.037000   -0.196000   -1.541000
     13          6           0        5.301000    0.766000    1.905000
     14          1           0        5.308000    0.322000    2.902000
     15          1           0        5.747000    1.766000    1.967000
     16          1           0        5.921000    0.153000    1.244000
 ---------------------------------------------------------------------
                    Distance matrix (angstroms):
                    1          2          3          4          5
     1  H    0.000000
     2  C    1.093000   0.000000
     3  C    2.181345   1.528098   0.000000
     4  H    1.756395   1.094218   2.183486   0.000000
     5  H    1.764207   1.092799   2.177210   1.765058   0.000000
     6  H    2.523393   2.168611   1.095629   2.531057   3.082580
     7  Si   3.825914   2.855320   1.860706   3.094291   3.061230
     8  H    2.509497   2.165588   1.095203   3.084740   2.536007
     9  O    4.546718   3.538046   3.040067   3.174530   3.847935
    10  O    4.305591   3.325465   2.796515   3.732257   2.951029
    11  H    4.967824   4.131166   2.800482   4.425646   4.429988
    12  H    4.325560   3.328698   3.265470   2.732025   3.580409
    13  C    5.684750   4.682205   4.165497   4.968124   4.222805
    14  H    6.058065   5.127525   4.793101   5.505788   4.466160
    15  H    6.325809   5.352342   4.553304   5.688036   5.026552
    16  H    6.052205   4.988039   4.621051   5.038862   4.567232
                    6          7          8          9         10
     6  H    0.000000
     7  Si   2.431227   0.000000
     8  H    1.751203   2.425459   0.000000
     9  O    3.259100   1.785861   3.943710   0.000000
    10  O    3.721316   1.642579   2.980401   2.839965   0.000000
    11  H    2.998743   1.485517   3.039282   2.573502   2.563295
    12  H    3.545085   2.384507   4.255179   0.958017   3.164678
    13  C    5.016393   2.693482   4.323125   3.428872   1.408423
    14  H    5.747942   3.586776   4.803982   4.409282   2.035757
    15  H    5.279056   2.964183   4.603011   3.792236   2.077348
    16  H    5.394604   3.019137   4.998138   3.136224   2.075705
                   11         12         13         14         15
    11  H    0.000000
    12  H    3.446080   0.000000
    13  C    3.159210   3.794477   0.000000
    14  H    4.119255   4.650163   1.091418   0.000000
    15  H    2.877355   4.368021   1.096704   1.775410   0.000000
    16  H    3.578733   3.380456   1.094116   1.775752   1.776168
                   16
    16  H    0.000000
 Stoichiometry    C3H10O2Si
 Framework group  C1[X(C3H10O2Si)]
 Deg. of freedom    42
 Full point group                 C1      NOp   1
 Largest Abelian subgroup         C1      NOp   1
 Largest concise Abelian subgroup C1      NOp   1
                         Standard orientation:                         
 ---------------------------------------------------------------------
 Center     Atomic      Atomic             Coordinates (Angstroms)
 Number     Number       Type             X           Y           Z
 ---------------------------------------------------------------------
      1          1           0       -3.233791   -1.169191   -0.565500
      2          6           0       -2.237387   -0.738306   -0.692645
      3          6           0       -1.624270   -0.335015    0.647702
      4          1           0       -2.346424    0.120456   -1.361938
      5          1           0       -1.618867   -1.479919   -1.204165
      6          1           0       -2.259230    0.401869    1.151914
      7         14           0        0.090362    0.377620    0.527658
      8          1           0       -1.573593   -1.201150    1.316067
      9          8           0        0.162486    1.852412   -0.476874
     10          8           0        1.030640   -0.822776   -0.083074
     11          1           0        0.629052    0.827195    1.837031
     12          1           0       -0.191362    1.799640   -1.365583
     13          6           0        2.424313   -0.715138   -0.255541
     14          1           0        2.802850   -1.676505   -0.607216
     15          1           0        2.926923   -0.467845    0.687321
     16          1           0        2.678428    0.052439   -0.992657
 ---------------------------------------------------------------------
 Rotational constants (GHZ):      3.8049764      1.8900103      1.5485985
 Standard basis: def2TZVP (5D, 7F)
 There are   252 symmetry adapted basis functions of A   symmetry.
 Integral buffers will be    131072 words long.
 Raffenetti 2 integral format.
 Two-electron integral symmetry is turned on.
   252 basis functions,   404 primitive gaussians,   282 cartesian basis functions
    29 alpha electrons       29 beta electrons
       nuclear repulsion energy       325.0382738575 Hartrees.
 NAtoms=   16 NActive=   16 NUniq=   16 SFac= 1.00D+00 NAtFMM=   60 NAOKFM=F Big=F
 One-electron integrals computed using PRISM.
   1 Symmetry operations used in ECPInt.
 ECPInt:  NShTT=    5886 NPrTT=   17754 LenC2=    5777 LenP2D=   13885.
 LDataN:  DoStor=T MaxTD1= 6 Len=  172
 NBasis=   252 RedAO= T  NBF=   252
 NBsUse=   252 1.00D-06 NBFU=   252
 Harris functional with IExCor= 1009 diagonalized for initial guess.
 ExpMin= 7.01D-02 ExpMax= 4.48D+04 ExpMxC= 1.53D+03 IAcc=2 IRadAn=         4 AccDes= 0.00D+00
 HarFok:  IExCor= 1009 AccDes= 0.00D+00 IRadAn=         4 IDoV= 1
 ScaDFX=  1.000000  1.000000  1.000000  1.000000
 FoFCou: FMM=F IPFlag=           0 FMFlag=      100000 FMFlg1=           0
         NFxFlg=           0 DoJE=T BraDBF=F KetDBF=T FulRan=T
         Omega=  0.000000  0.000000  1.000000  0.000000  0.000000 ICntrl=     500 IOpCl=  0
         NMat0=    1 NMatS0=    1 NMatT0=    0 NMatD0=    1 NMtDS0=    0 NMtDT0=    0
         I1Cent=           4 NGrid=           0.
 Petite list used in FoFCou.
 Initial guess orbital symmetries:
       Occupied  (A) (A) (A) (A) (A) (A) (A) (A) (A) (A) (A) (A)
                 (A) (A) (A) (A) (A) (A) (A) (A) (A) (A) (A) (A)
                 (A) (A) (A) (A) (A)
       Virtual   (A) (A) (A) (A) (A) (A) (A) (A) (A) (A) (A) (A)
                 (A) (A) (A) (A) (A) (A) (A) (A) (A) (A) (A) (A)
                 (A) (A) (A) (A) (A) (A) (A) (A) (A) (A) (A) (A)
                 (A) (A) (A) (A) (A) (A) (A) (A) (A) (A) (A) (A)
                 (A) (A) (A) (A) (A) (A) (A) (A) (A) (A) (A) (A)
                 (A) (A) (A) (A) (A) (A) (A) (A) (A) (A) (A) (A)
                 (A) (A) (A) (A) (A) (A) (A) (A) (A) (A) (A) (A)
                 (A) (A) (A) (A) (A) (A) (A) (A) (A) (A) (A) (A)
                 (A) (A) (A) (A) (A) (A) (A) (A) (A) (A) (A) (A)
                 (A) (A) (A) (A) (A) (A) (A) (A) (A) (A) (A) (A)
                 (A) (A) (A) (A) (A) (A) (A) (A) (A) (A) (A) (A)
                 (A) (A) (A) (A) (A) (A) (A) (A) (A) (A) (A) (A)
                 (A) (A) (A) (A) (A) (A) (A) (A) (A) (A) (A) (A)
                 (A) (A) (A) (A) (A) (A) (A) (A) (A) (A) (A) (A)
                 (A) (A) (A) (A) (A) (A) (A) (A) (A) (A) (A) (A)
                 (A) (A) (A) (A) (A) (A) (A) (A) (A) (A) (A) (A)
                 (A) (A) (A) (A) (A) (A) (A) (A) (A) (A) (A) (A)
                 (A) (A) (A) (A) (A) (A) (A) (A) (A) (A) (A) (A)
                 (A) (A) (A) (A) (A) (A) (A)
 The electronic state of the initial guess is 1-A.
 Requested convergence on RMS density matrix=1.00D-08 within 128 cycles.
 Requested convergence on MAX density matrix=1.00D-06.
 Requested convergence on             energy=1.00D-06.
 No special actions if energy rises.
 Integral accuracy reduced to 1.0D-05 until final iterations.
 Initial convergence to 1.0D-05 achieved.  Increase integral accuracy.
 SCF Done:  E(RPBE1PBE) =  -560.052839939     A.U. after   13 cycles
             Convg  =    0.4665D-08             -V/T =  2.0036

 **********************************************************************

            Population analysis using the SCF density.

 **********************************************************************

 Orbital symmetries:
       Occupied  (A) (A) (A) (A) (A) (A) (A) (A) (A) (A) (A) (A)
                 (A) (A) (A) (A) (A) (A) (A) (A) (A) (A) (A) (A)
                 (A) (A) (A) (A) (A)
       Virtual   (A) (A) (A) (A) (A) (A) (A) (A) (A) (A) (A) (A)
                 (A) (A) (A) (A) (A) (A) (A) (A) (A) (A) (A) (A)
                 (A) (A) (A) (A) (A) (A) (A) (A) (A) (A) (A) (A)
                 (A) (A) (A) (A) (A) (A) (A) (A) (A) (A) (A) (A)
                 (A) (A) (A) (A) (A) (A) (A) (A) (A) (A) (A) (A)
                 (A) (A) (A) (A) (A) (A) (A) (A) (A) (A) (A) (A)
                 (A) (A) (A) (A) (A) (A) (A) (A) (A) (A) (A) (A)
                 (A) (A) (A) (A) (A) (A) (A) (A) (A) (A) (A) (A)
                 (A) (A) (A) (A) (A) (A) (A) (A) (A) (A) (A) (A)
                 (A) (A) (A) (A) (A) (A) (A) (A) (A) (A) (A) (A)
                 (A) (A) (A) (A) (A) (A) (A) (A) (A) (A) (A) (A)
                 (A) (A) (A) (A) (A) (A) (A) (A) (A) (A) (A) (A)
                 (A) (A) (A) (A) (A) (A) (A) (A) (A) (A) (A) (A)
                 (A) (A) (A) (A) (A) (A) (A) (A) (A) (A) (A) (A)
                 (A) (A) (A) (A) (A) (A) (A) (A) (A) (A) (A) (A)
                 (A) (A) (A) (A) (A) (A) (A) (A) (A) (A) (A) (A)
                 (A) (A) (A) (A) (A) (A) (A) (A) (A) (A) (A) (A)
                 (A) (A) (A) (A) (A) (A) (A) (A) (A) (A) (A) (A)
                 (A) (A) (A) (A) (A) (A) (A)
 The electronic state is 1-A.
 Alpha  occ. eigenvalues --  -66.26923 -19.20672 -19.19333 -10.26696 -10.21875
 Alpha  occ. eigenvalues --  -10.21430  -5.34322  -3.67851  -3.67747  -3.67591
 Alpha  occ. eigenvalues --   -1.04540  -0.99711  -0.78516  -0.70844  -0.64328
 Alpha  occ. eigenvalues --   -0.55353  -0.50402  -0.47131  -0.46851  -0.46041
 Alpha  occ. eigenvalues --   -0.43782  -0.41421  -0.38136  -0.36921  -0.36344
 Alpha  occ. eigenvalues --   -0.34442  -0.31798  -0.30695  -0.30098
 Alpha virt. eigenvalues --    0.02193   0.05012   0.05720   0.07765   0.08855
 Alpha virt. eigenvalues --    0.09847   0.10379   0.10928   0.12133   0.13227
 Alpha virt. eigenvalues --    0.13520   0.14999   0.15575   0.16083   0.19017
 Alpha virt. eigenvalues --    0.21046   0.21832   0.23042   0.24345   0.24867
 Alpha virt. eigenvalues --    0.26587   0.27335   0.28635   0.29563   0.30798
 Alpha virt. eigenvalues --    0.32473   0.36576   0.39197   0.39927   0.40556
 Alpha virt. eigenvalues --    0.41778   0.42350   0.43925   0.45099   0.45399
 Alpha virt. eigenvalues --    0.45937   0.47304   0.47792   0.49571   0.49901
 Alpha virt. eigenvalues --    0.50549   0.53256   0.55340   0.56609   0.60454
 Alpha virt. eigenvalues --    0.60726   0.62638   0.64314   0.65710   0.68088
 Alpha virt. eigenvalues --    0.73085   0.73942   0.74496   0.77079   0.80116
 Alpha virt. eigenvalues --    0.82107   0.83567   0.86169   0.87631   0.91692
 Alpha virt. eigenvalues --    0.93046   0.95200   0.96335   0.99026   1.00661
 Alpha virt. eigenvalues --    1.03260   1.05613   1.06669   1.08433   1.11336
 Alpha virt. eigenvalues --    1.11983   1.12850   1.15155   1.18325   1.19986
 Alpha virt. eigenvalues --    1.23824   1.27203   1.32100   1.35984   1.40486
 Alpha virt. eigenvalues --    1.41272   1.46005   1.46514   1.49971   1.52087
 Alpha virt. eigenvalues --    1.53042   1.54189   1.54819   1.55933   1.57535
 Alpha virt. eigenvalues --    1.59312   1.61753   1.62706   1.63030   1.65102
 Alpha virt. eigenvalues --    1.67479   1.70101   1.73865   1.76207   1.78385
 Alpha virt. eigenvalues --    1.80291   1.82844   1.86359   1.89052   1.90721
 Alpha virt. eigenvalues --    1.94388   1.95011   1.98914   1.99329   2.01925
 Alpha virt. eigenvalues --    2.03781   2.07073   2.08991   2.11954   2.13656
 Alpha virt. eigenvalues --    2.16518   2.17558   2.25888   2.27641   2.29685
 Alpha virt. eigenvalues --    2.31046   2.31688   2.32821   2.34922   2.35399
 Alpha virt. eigenvalues --    2.35627   2.39755   2.42713   2.46620   2.48435
 Alpha virt. eigenvalues --    2.50666   2.51046   2.54380   2.55885   2.58006
 Alpha virt. eigenvalues --    2.59121   2.61003   2.64561   2.66628   2.70366
 Alpha virt. eigenvalues --    2.72256   2.75899   2.79418   2.80876   2.83013
 Alpha virt. eigenvalues --    2.84134   2.92200   2.93092   2.98753   2.99647
 Alpha virt. eigenvalues --    3.04587   3.08526   3.09573   3.11175   3.14595
 Alpha virt. eigenvalues --    3.19535   3.22126   3.22645   3.26118   3.29584
 Alpha virt. eigenvalues --    3.31364   3.32380   3.36038   3.39564   3.40199
 Alpha virt. eigenvalues --    3.44174   3.45542   3.45845   3.52657   3.53575
 Alpha virt. eigenvalues --    3.57803   3.59819   3.61939   3.64746   3.76375
 Alpha virt. eigenvalues --    3.80884   3.84337   3.92181   3.95397   4.02577
 Alpha virt. eigenvalues --    4.18718   4.23890   4.24615   4.33941   4.36612
 Alpha virt. eigenvalues --    4.41474   4.46568   4.53058   4.56679   4.78331
 Alpha virt. eigenvalues --    5.13412   5.16941   5.17470   5.18455   5.25085
 Alpha virt. eigenvalues --    5.28756   5.37513   5.40981   5.45420   5.50960
 Alpha virt. eigenvalues --    5.79070   5.85844   6.03014   6.21927   6.37394
 Alpha virt. eigenvalues --    6.40515   6.50821   6.55818   6.57127   6.60057
 Alpha virt. eigenvalues --    6.62047   6.76464   6.80869   6.92635   7.04813
 Alpha virt. eigenvalues --    7.12755   7.19043  11.71959  22.36807  22.40621
 Alpha virt. eigenvalues --   22.44669  43.55242  43.93478
          Condensed to atoms (all electrons):
              1          2          3          4          5          6
     1  H    0.552107   0.406947  -0.033755  -0.025154  -0.024834  -0.006891
     2  C    0.406947   4.941663   0.318430   0.399423   0.412029  -0.027037
     3  C   -0.033755   0.318430   5.010344  -0.043268  -0.038564   0.388430
     4  H   -0.025154   0.399423  -0.043268   0.577492  -0.026343  -0.004970
     5  H   -0.024834   0.412029  -0.038564  -0.026343   0.534348   0.007611
     6  H   -0.006891  -0.027037   0.388430  -0.004970   0.007611   0.574156
     7  Si   0.008123  -0.022727   0.417786  -0.003718  -0.009331  -0.030107
     8  H   -0.006628  -0.029312   0.371457   0.008790  -0.004072  -0.027103
     9  O    0.000037  -0.004708  -0.031236   0.005433  -0.000344  -0.000773
    10  O    0.000025  -0.005192  -0.030770   0.000392   0.007666   0.001324
    11  H   -0.000118   0.001573  -0.033482   0.000209   0.000389   0.001140
    12  H   -0.000058  -0.000227  -0.001641   0.001784  -0.000010   0.000042
    13  C    0.000012  -0.000168   0.001646   0.000123  -0.000013  -0.000124
    14  H   -0.000004   0.000227  -0.000397  -0.000005  -0.000164   0.000000
    15  H    0.000001  -0.000048   0.000033  -0.000002   0.000080   0.000004
    16  H    0.000000  -0.000097   0.000768  -0.000020  -0.000001   0.000014
              7          8          9         10         11         12
     1  H    0.008123  -0.006628   0.000037   0.000025  -0.000118  -0.000058
     2  C   -0.022727  -0.029312  -0.004708  -0.005192   0.001573  -0.000227
     3  C    0.417786   0.371457  -0.031236  -0.030770  -0.033482  -0.001641
     4  H   -0.003718   0.008790   0.005433   0.000392   0.000209   0.001784
     5  H   -0.009331  -0.004072  -0.000344   0.007666   0.000389  -0.000010
     6  H   -0.030107  -0.027103  -0.000773   0.001324   0.001140   0.000042
     7  Si  11.925535  -0.013265   0.418932   0.447328   0.391155  -0.024815
     8  H   -0.013265   0.575645   0.001639   0.001795   0.000821  -0.000069
     9  O    0.418932   0.001639   7.950214  -0.028617  -0.014370   0.292857
    10  O    0.447328   0.001795  -0.028617   7.830071  -0.025376  -0.000608
    11  H    0.391155   0.000821  -0.014370  -0.025376   0.715568   0.003204
    12  H   -0.024815  -0.000069   0.292857  -0.000608   0.003204   0.415630
    13  C   -0.051787   0.000112  -0.007129   0.260844   0.002461   0.000500
    14  H    0.008229   0.000000   0.000130  -0.040725  -0.000216   0.000016
    15  H   -0.017627  -0.000024  -0.000380  -0.042275   0.009555   0.000008
    16  H   -0.003416  -0.000017   0.007086  -0.042788  -0.001814   0.000145
             13         14         15         16
     1  H    0.000012  -0.000004   0.000001   0.000000
     2  C   -0.000168   0.000227  -0.000048  -0.000097
     3  C    0.001646  -0.000397   0.000033   0.000768
     4  H    0.000123  -0.000005  -0.000002  -0.000020
     5  H   -0.000013  -0.000164   0.000080  -0.000001
     6  H   -0.000124   0.000000   0.000004   0.000014
     7  Si  -0.051787   0.008229  -0.017627  -0.003416
     8  H    0.000112   0.000000  -0.000024  -0.000017
     9  O   -0.007129   0.000130  -0.000380   0.007086
    10  O    0.260844  -0.040725  -0.042275  -0.042788
    11  H    0.002461  -0.000216   0.009555  -0.001814
    12  H    0.000500   0.000016   0.000008   0.000145
    13  C    4.775466   0.400700   0.417844   0.412109
    14  H    0.400700   0.565669  -0.030381  -0.032572
    15  H    0.417844  -0.030381   0.591602  -0.046234
    16  H    0.412109  -0.032572  -0.046234   0.581493
 Mulliken atomic charges:
              1
     1  H    0.130191
     2  C   -0.390775
     3  C   -0.295782
     4  H    0.109831
     5  H    0.141553
     6  H    0.124284
     7  Si   0.559703
     8  H    0.120230
     9  O   -0.588772
    10  O   -0.333093
    11  H   -0.050698
    12  H    0.313242
    13  C   -0.212597
    14  H    0.129492
    15  H    0.117845
    16  H    0.125345
 Sum of Mulliken atomic charges =   0.00000
 Mulliken charges with hydrogens summed into heavy atoms:
              1
     2  C   -0.009199
     3  C   -0.051268
     7  Si   0.509004
     9  O   -0.275530
    10  O   -0.333093
    13  C    0.160086
 Sum of Mulliken charges with hydrogens summed into heavy atoms =   0.00000
 Electronic spatial extent (au):  <R**2>=            883.1656
 Charge=              0.0000 electrons
 Dipole moment (field-independent basis, Debye):
    X=             -0.3015    Y=             -1.0230    Z=             -0.5952  Tot=              1.2213
 Quadrupole moment (field-independent basis, Debye-Ang):
   XX=            -40.7909   YY=            -50.1636   ZZ=            -42.8128
   XY=             -1.7802   XZ=             -0.2417   YZ=             -1.8104
 Traceless Quadrupole moment (field-independent basis, Debye-Ang):
   XX=              3.7982   YY=             -5.5745   ZZ=              1.7763
   XY=             -1.7802   XZ=             -0.2417   YZ=             -1.8104
 Octapole moment (field-independent basis, Debye-Ang**2):
  XXX=             14.3238  YYY=             -8.8679  ZZZ=             -9.4335  XYY=             -1.4120
  XXY=             -2.6183  XXZ=             -1.3716  XZZ=              0.7577  YZZ=              5.3947
  YYZ=             -4.1421  XYZ=              2.0255
 Hexadecapole moment (field-independent basis, Debye-Ang**3):
 XXXX=           -700.6069 YYYY=           -312.5531 ZZZZ=           -172.5313 XXXY=            -12.3737
 XXXZ=             -7.4348 YYYX=            -12.8119 YYYZ=             -9.1029 ZZZX=             -3.1512
 ZZZY=            -17.8991 XXYY=           -165.0304 XXZZ=           -150.6942 YYZZ=            -66.3621
 XXYZ=             -0.0983 YYXZ=             -1.1787 ZZXY=             -4.9902
 N-N= 3.250382738575D+02 E-N=-1.973804294919D+03  KE= 5.580281823210D+02
 1\1\GINC-TARSUS2\SP\RPBE1PBE\def2TZVP\C3H10O2Si1\RENATO\09-Aug-2018\0\
 \#SP PBE1PBE/Def2TZVP geom=connectivity\\Structure: 242\\0,1\H,0,0.,0.
 ,0.\C,0,1.093,0.,0.\C,0,1.655,1.421,0.\H,0,1.41,-0.56,-0.885\H,0,1.424
 ,-0.557,0.88\H,0,1.308,1.969,-0.883\Si,0,3.513,1.515,0.035\H,0,1.282,1
 .975,0.868\O,0,4.277,0.715,-1.367\O,0,3.968,0.824,1.454\H,0,4.029,2.90
 6,-0.04\H,0,4.037,-0.196,-1.541\C,0,5.301,0.766,1.905\H,0,5.308,0.322,
 2.902\H,0,5.747,1.766,1.967\H,0,5.921,0.153,1.244\\Version=EM64L-G09Re
 vC.01\State=1-A\HF=-560.0528399\RMSD=4.665e-09\Dipole=-0.2395488,-0.29
 15563,0.2974918\Quadrupole=0.9308092,0.8489845,-1.7797938,-1.0351185,3
 .2067703,1.8195817\PG=C01 [X(C3H10O2Si1)]\\@


 SCIENCE AT ITS BEST PROVIDES US WITH BETTER QUESTIONS, 
 NOT ABSOLUTE ANSWERS

                                    -- NORMAN COUSINS, 1976
 Job cpu time:  0 days  0 hours 13 minutes 50.7 seconds.
 File lengths (MBytes):  RWF=     40 Int=      0 D2E=      0 Chk=      3 Scr=      1
 Normal termination of Gaussian 09 at Thu Aug  9 22:53:04 2018.
