 Entering Gaussian System, Link 0=g09
 Initial command:
 /usr/local/gaussian09/g09/l1.exe /scratch/renato/Gau-10389.inp -scrdir=/scratch/renato/
 Entering Link 1 = /usr/local/gaussian09/g09/l1.exe PID=     10391.
  
 Copyright (c) 1988,1990,1992,1993,1995,1998,2003,2009,2011,
            Gaussian, Inc.  All Rights Reserved.
  
 This is part of the Gaussian(R) 09 program.  It is based on
 the Gaussian(R) 03 system (copyright 2003, Gaussian, Inc.),
 the Gaussian(R) 98 system (copyright 1998, Gaussian, Inc.),
 the Gaussian(R) 94 system (copyright 1995, Gaussian, Inc.),
 the Gaussian 92(TM) system (copyright 1992, Gaussian, Inc.),
 the Gaussian 90(TM) system (copyright 1990, Gaussian, Inc.),
 the Gaussian 88(TM) system (copyright 1988, Gaussian, Inc.),
 the Gaussian 86(TM) system (copyright 1986, Carnegie Mellon
 University), and the Gaussian 82(TM) system (copyright 1983,
 Carnegie Mellon University). Gaussian is a federally registered
 trademark of Gaussian, Inc.
  
 This software contains proprietary and confidential information,
 including trade secrets, belonging to Gaussian, Inc.
  
 This software is provided under written license and may be
 used, copied, transmitted, or stored only in accord with that
 written license.
  
 The following legend is applicable only to US Government
 contracts under FAR:
  
                    RESTRICTED RIGHTS LEGEND
  
 Use, reproduction and disclosure by the US Government is
 subject to restrictions as set forth in subparagraphs (a)
 and (c) of the Commercial Computer Software - Restricted
 Rights clause in FAR 52.227-19.
  
 Gaussian, Inc.
 340 Quinnipiac St., Bldg. 40, Wallingford CT 06492
  
  
 ---------------------------------------------------------------
 Warning -- This program may not be used in any manner that
 competes with the business of Gaussian, Inc. or will provide
 assistance to any competitor of Gaussian, Inc.  The licensee
 of this program is prohibited from giving any competitor of
 Gaussian, Inc. access to this program.  By using this program,
 the user acknowledges that Gaussian, Inc. is engaged in the
 business of creating and licensing software in the field of
 computational chemistry and represents and warrants to the
 licensee that it is not a competitor of Gaussian, Inc. and that
 it will not use this program in any manner prohibited above.
 ---------------------------------------------------------------
  

 Cite this work as:
 Gaussian 09, Revision C.01,
 M. J. Frisch, G. W. Trucks, H. B. Schlegel, G. E. Scuseria, 
 M. A. Robb, J. R. Cheeseman, G. Scalmani, V. Barone, B. Mennucci, 
 G. A. Petersson, H. Nakatsuji, M. Caricato, X. Li, H. P. Hratchian, 
 A. F. Izmaylov, J. Bloino, G. Zheng, J. L. Sonnenberg, M. Hada, 
 M. Ehara, K. Toyota, R. Fukuda, J. Hasegawa, M. Ishida, T. Nakajima, 
 Y. Honda, O. Kitao, H. Nakai, T. Vreven, J. A. Montgomery, Jr., 
 J. E. Peralta, F. Ogliaro, M. Bearpark, J. J. Heyd, E. Brothers, 
 K. N. Kudin, V. N. Staroverov, T. Keith, R. Kobayashi, J. Normand, 
 K. Raghavachari, A. Rendell, J. C. Burant, S. S. Iyengar, J. Tomasi, 
 M. Cossi, N. Rega, J. M. Millam, M. Klene, J. E. Knox, J. B. Cross, 
 V. Bakken, C. Adamo, J. Jaramillo, R. Gomperts, R. E. Stratmann, 
 O. Yazyev, A. J. Austin, R. Cammi, C. Pomelli, J. W. Ochterski, 
 R. L. Martin, K. Morokuma, V. G. Zakrzewski, G. A. Voth, 
 P. Salvador, J. J. Dannenberg, S. Dapprich, A. D. Daniels, 
 O. Farkas, J. B. Foresman, J. V. Ortiz, J. Cioslowski, 
 and D. J. Fox, Gaussian, Inc., Wallingford CT, 2010.
 
 ******************************************
 Gaussian 09:  EM64L-G09RevC.01 23-Sep-2011
                10-Aug-2018 
 ******************************************
 %nproc=2
 Will use up to    2 processors via shared memory.
 %mem=256MB
 %RWF=bm3.rwf
 %chk=bm3280
 %NoSave
 --------------------------------------
 #SP PBE1PBE/Def2TZVP geom=connectivity
 --------------------------------------
 1/38=1,57=2/1;
 2/12=2,17=6,18=5,40=1/2;
 3/5=44,7=101,11=2,16=1,25=1,30=1,74=-13/1,2,3;
 4//1;
 5/5=2,38=5/2;
 6/7=2,8=2,9=2,10=2,28=1/1;
 99/5=1,9=1/99;
 --------------
 Structure: 280
 --------------
 Charge =  0 Multiplicity = 1
 Symbolic Z-Matrix:
 H                     0.        0.        0. 
 C                     1.093     0.        0. 
 C                     1.655     1.421     0. 
 H                     1.41     -0.56     -0.885 
 H                     1.424    -0.557     0.88 
 H                     1.308     1.969    -0.883 
 Si                    3.513     1.515     0.035 
 H                     1.282     1.975     0.868 
 O                     4.309     0.681    -1.427 
 O                     3.968     0.824     1.454 
 H                     4.029     2.906    -0.04 
 H                     4.07     -0.23     -1.601 
 C                     5.301     0.766     1.905 
 H                     5.308     0.322     2.902 
 H                     5.747     1.766     1.967 
 H                     5.921     0.153     1.244 
 
                          Input orientation:                          
 ---------------------------------------------------------------------
 Center     Atomic      Atomic             Coordinates (Angstroms)
 Number     Number       Type             X           Y           Z
 ---------------------------------------------------------------------
      1          1           0        0.000000    0.000000    0.000000
      2          6           0        1.093000    0.000000    0.000000
      3          6           0        1.655000    1.421000    0.000000
      4          1           0        1.410000   -0.560000   -0.885000
      5          1           0        1.424000   -0.557000    0.880000
      6          1           0        1.308000    1.969000   -0.883000
      7         14           0        3.513000    1.515000    0.035000
      8          1           0        1.282000    1.975000    0.868000
      9          8           0        4.309000    0.681000   -1.427000
     10          8           0        3.968000    0.824000    1.454000
     11          1           0        4.029000    2.906000   -0.040000
     12          1           0        4.070000   -0.230000   -1.601000
     13          6           0        5.301000    0.766000    1.905000
     14          1           0        5.308000    0.322000    2.902000
     15          1           0        5.747000    1.766000    1.967000
     16          1           0        5.921000    0.153000    1.244000
 ---------------------------------------------------------------------
                    Distance matrix (angstroms):
                    1          2          3          4          5
     1  H    0.000000
     2  C    1.093000   0.000000
     3  C    2.181345   1.528098   0.000000
     4  H    1.756395   1.094218   2.183486   0.000000
     5  H    1.764207   1.092799   2.177210   1.765058   0.000000
     6  H    2.523393   2.168611   1.095629   2.531057   3.082580
     7  Si   3.825914   2.855320   1.860706   3.094291   3.061230
     8  H    2.509497   2.165588   1.095203   3.084740   2.536007
     9  O    4.589942   3.583678   3.102845   3.199695   3.895910
    10  O    4.305591   3.325465   2.796515   3.732257   2.951029
    11  H    4.967824   4.131166   2.800482   4.425646   4.429988
    12  H    4.379612   3.388013   3.334850   2.774375   3.641923
    13  C    5.684750   4.682205   4.165497   4.968124   4.222805
    14  H    6.058065   5.127525   4.793101   5.505788   4.466160
    15  H    6.325809   5.352342   4.553304   5.688036   5.026552
    16  H    6.052205   4.988039   4.621051   5.038862   4.567232
                    6          7          8          9         10
     6  H    0.000000
     7  Si   2.431227   0.000000
     8  H    1.751203   2.425459   0.000000
     9  O    3.310722   1.861885   4.013003   0.000000
    10  O    3.721316   1.642579   2.980401   2.904633   0.000000
    11  H    2.998743   1.485517   3.039282   2.636815   2.563295
    12  H    3.602745   2.455966   4.327924   0.957767   3.233318
    13  C    5.016393   2.693482   4.323125   3.477573   1.408423
    14  H    5.747942   3.586776   4.803982   4.457255   2.035757
    15  H    5.279056   2.964183   4.603011   3.842435   2.077348
    16  H    5.394604   3.019137   4.998138   3.164106   2.075705
                   11         12         13         14         15
    11  H    0.000000
    12  H    3.503270   0.000000
    13  C    3.159210   3.847001   0.000000
    14  H    4.119255   4.702590   1.091418   0.000000
    15  H    2.877355   4.418933   1.096704   1.775410   0.000000
    16  H    3.578733   3.415687   1.094116   1.775752   1.776168
                   16
    16  H    0.000000
 Stoichiometry    C3H10O2Si
 Framework group  C1[X(C3H10O2Si)]
 Deg. of freedom    42
 Full point group                 C1      NOp   1
 Largest Abelian subgroup         C1      NOp   1
 Largest concise Abelian subgroup C1      NOp   1
                         Standard orientation:                         
 ---------------------------------------------------------------------
 Center     Atomic      Atomic             Coordinates (Angstroms)
 Number     Number       Type             X           Y           Z
 ---------------------------------------------------------------------
      1          1           0       -3.235477   -1.154388   -0.601114
      2          6           0       -2.238418   -0.720720   -0.712716
      3          6           0       -1.625500   -0.365050    0.641135
      4          1           0       -2.345916    0.160909   -1.351847
      5          1           0       -1.620622   -1.444978   -1.249361
      6          1           0       -2.259737    0.354760    1.170303
      7         14           0        0.090166    0.348963    0.546777
      8          1           0       -1.576370   -1.253934    1.279053
      9          8           0        0.167429    1.921951   -0.446377
     10          8           0        1.029152   -0.830800   -0.104783
     11          1           0        0.628738    0.752068    1.871243
     12          1           0       -0.185084    1.900947   -1.336664
     13          6           0        2.423065   -0.719158   -0.272701
     14          1           0        2.800492   -1.668257   -0.657348
     15          1           0        2.925487   -0.505439    0.678433
     16          1           0        2.678633    0.073196   -0.982596
 ---------------------------------------------------------------------
 Rotational constants (GHZ):      3.6731384      1.8850712      1.5294620
 Standard basis: def2TZVP (5D, 7F)
 There are   252 symmetry adapted basis functions of A   symmetry.
 Integral buffers will be    131072 words long.
 Raffenetti 2 integral format.
 Two-electron integral symmetry is turned on.
   252 basis functions,   404 primitive gaussians,   282 cartesian basis functions
    29 alpha electrons       29 beta electrons
       nuclear repulsion energy       322.7213520885 Hartrees.
 NAtoms=   16 NActive=   16 NUniq=   16 SFac= 1.00D+00 NAtFMM=   60 NAOKFM=F Big=F
 One-electron integrals computed using PRISM.
   1 Symmetry operations used in ECPInt.
 ECPInt:  NShTT=    5886 NPrTT=   17754 LenC2=    5772 LenP2D=   13858.
 LDataN:  DoStor=T MaxTD1= 6 Len=  172
 NBasis=   252 RedAO= T  NBF=   252
 NBsUse=   252 1.00D-06 NBFU=   252
 Harris functional with IExCor= 1009 diagonalized for initial guess.
 ExpMin= 7.01D-02 ExpMax= 4.48D+04 ExpMxC= 1.53D+03 IAcc=2 IRadAn=         4 AccDes= 0.00D+00
 HarFok:  IExCor= 1009 AccDes= 0.00D+00 IRadAn=         4 IDoV= 1
 ScaDFX=  1.000000  1.000000  1.000000  1.000000
 FoFCou: FMM=F IPFlag=           0 FMFlag=      100000 FMFlg1=           0
         NFxFlg=           0 DoJE=T BraDBF=F KetDBF=T FulRan=T
         Omega=  0.000000  0.000000  1.000000  0.000000  0.000000 ICntrl=     500 IOpCl=  0
         NMat0=    1 NMatS0=    1 NMatT0=    0 NMatD0=    1 NMtDS0=    0 NMtDT0=    0
         I1Cent=           4 NGrid=           0.
 Petite list used in FoFCou.
 Initial guess orbital symmetries:
       Occupied  (A) (A) (A) (A) (A) (A) (A) (A) (A) (A) (A) (A)
                 (A) (A) (A) (A) (A) (A) (A) (A) (A) (A) (A) (A)
                 (A) (A) (A) (A) (A)
       Virtual   (A) (A) (A) (A) (A) (A) (A) (A) (A) (A) (A) (A)
                 (A) (A) (A) (A) (A) (A) (A) (A) (A) (A) (A) (A)
                 (A) (A) (A) (A) (A) (A) (A) (A) (A) (A) (A) (A)
                 (A) (A) (A) (A) (A) (A) (A) (A) (A) (A) (A) (A)
                 (A) (A) (A) (A) (A) (A) (A) (A) (A) (A) (A) (A)
                 (A) (A) (A) (A) (A) (A) (A) (A) (A) (A) (A) (A)
                 (A) (A) (A) (A) (A) (A) (A) (A) (A) (A) (A) (A)
                 (A) (A) (A) (A) (A) (A) (A) (A) (A) (A) (A) (A)
                 (A) (A) (A) (A) (A) (A) (A) (A) (A) (A) (A) (A)
                 (A) (A) (A) (A) (A) (A) (A) (A) (A) (A) (A) (A)
                 (A) (A) (A) (A) (A) (A) (A) (A) (A) (A) (A) (A)
                 (A) (A) (A) (A) (A) (A) (A) (A) (A) (A) (A) (A)
                 (A) (A) (A) (A) (A) (A) (A) (A) (A) (A) (A) (A)
                 (A) (A) (A) (A) (A) (A) (A) (A) (A) (A) (A) (A)
                 (A) (A) (A) (A) (A) (A) (A) (A) (A) (A) (A) (A)
                 (A) (A) (A) (A) (A) (A) (A) (A) (A) (A) (A) (A)
                 (A) (A) (A) (A) (A) (A) (A) (A) (A) (A) (A) (A)
                 (A) (A) (A) (A) (A) (A) (A) (A) (A) (A) (A) (A)
                 (A) (A) (A) (A) (A) (A) (A)
 The electronic state of the initial guess is 1-A.
 Requested convergence on RMS density matrix=1.00D-08 within 128 cycles.
 Requested convergence on MAX density matrix=1.00D-06.
 Requested convergence on             energy=1.00D-06.
 No special actions if energy rises.
 Integral accuracy reduced to 1.0D-05 until final iterations.
 Initial convergence to 1.0D-05 achieved.  Increase integral accuracy.
 SCF Done:  E(RPBE1PBE) =  -560.043261282     A.U. after   13 cycles
             Convg  =    0.9849D-08             -V/T =  2.0038

 **********************************************************************

            Population analysis using the SCF density.

 **********************************************************************

 Orbital symmetries:
       Occupied  (A) (A) (A) (A) (A) (A) (A) (A) (A) (A) (A) (A)
                 (A) (A) (A) (A) (A) (A) (A) (A) (A) (A) (A) (A)
                 (A) (A) (A) (A) (A)
       Virtual   (A) (A) (A) (A) (A) (A) (A) (A) (A) (A) (A) (A)
                 (A) (A) (A) (A) (A) (A) (A) (A) (A) (A) (A) (A)
                 (A) (A) (A) (A) (A) (A) (A) (A) (A) (A) (A) (A)
                 (A) (A) (A) (A) (A) (A) (A) (A) (A) (A) (A) (A)
                 (A) (A) (A) (A) (A) (A) (A) (A) (A) (A) (A) (A)
                 (A) (A) (A) (A) (A) (A) (A) (A) (A) (A) (A) (A)
                 (A) (A) (A) (A) (A) (A) (A) (A) (A) (A) (A) (A)
                 (A) (A) (A) (A) (A) (A) (A) (A) (A) (A) (A) (A)
                 (A) (A) (A) (A) (A) (A) (A) (A) (A) (A) (A) (A)
                 (A) (A) (A) (A) (A) (A) (A) (A) (A) (A) (A) (A)
                 (A) (A) (A) (A) (A) (A) (A) (A) (A) (A) (A) (A)
                 (A) (A) (A) (A) (A) (A) (A) (A) (A) (A) (A) (A)
                 (A) (A) (A) (A) (A) (A) (A) (A) (A) (A) (A) (A)
                 (A) (A) (A) (A) (A) (A) (A) (A) (A) (A) (A) (A)
                 (A) (A) (A) (A) (A) (A) (A) (A) (A) (A) (A) (A)
                 (A) (A) (A) (A) (A) (A) (A) (A) (A) (A) (A) (A)
                 (A) (A) (A) (A) (A) (A) (A) (A) (A) (A) (A) (A)
                 (A) (A) (A) (A) (A) (A) (A) (A) (A) (A) (A) (A)
                 (A) (A) (A) (A) (A) (A) (A)
 The electronic state is 1-A.
 Alpha  occ. eigenvalues --  -66.27654 -19.21033 -19.18771 -10.26840 -10.21958
 Alpha  occ. eigenvalues --  -10.21729  -5.34969  -3.68505  -3.68395  -3.68228
 Alpha  occ. eigenvalues --   -1.04786  -0.98330  -0.78686  -0.71029  -0.64487
 Alpha  occ. eigenvalues --   -0.55038  -0.49743  -0.47294  -0.46987  -0.46085
 Alpha  occ. eigenvalues --   -0.43902  -0.41655  -0.38217  -0.36778  -0.35860
 Alpha  occ. eigenvalues --   -0.34115  -0.31555  -0.30728  -0.30108
 Alpha virt. eigenvalues --    0.01973   0.04664   0.05512   0.07623   0.08762
 Alpha virt. eigenvalues --    0.09488   0.10113   0.10703   0.12024   0.12935
 Alpha virt. eigenvalues --    0.13416   0.14767   0.15343   0.15908   0.18868
 Alpha virt. eigenvalues --    0.20845   0.21694   0.22764   0.24179   0.24776
 Alpha virt. eigenvalues --    0.26467   0.26716   0.28613   0.29607   0.30589
 Alpha virt. eigenvalues --    0.32345   0.36508   0.39021   0.39908   0.40580
 Alpha virt. eigenvalues --    0.41714   0.42274   0.43812   0.44904   0.45409
 Alpha virt. eigenvalues --    0.45777   0.47216   0.47751   0.49144   0.49686
 Alpha virt. eigenvalues --    0.50390   0.53203   0.55244   0.56523   0.60613
 Alpha virt. eigenvalues --    0.60693   0.62451   0.63647   0.65539   0.68129
 Alpha virt. eigenvalues --    0.72484   0.73672   0.74116   0.76656   0.79727
 Alpha virt. eigenvalues --    0.81628   0.83408   0.86041   0.87461   0.91586
 Alpha virt. eigenvalues --    0.93104   0.94911   0.96083   0.98853   1.00669
 Alpha virt. eigenvalues --    1.02624   1.04837   1.06498   1.08076   1.11144
 Alpha virt. eigenvalues --    1.11766   1.13009   1.14717   1.18177   1.19132
 Alpha virt. eigenvalues --    1.23254   1.26874   1.32069   1.35719   1.40120
 Alpha virt. eigenvalues --    1.40799   1.45105   1.46476   1.50223   1.51831
 Alpha virt. eigenvalues --    1.53085   1.54047   1.54546   1.55577   1.57394
 Alpha virt. eigenvalues --    1.59104   1.60801   1.62359   1.62915   1.64369
 Alpha virt. eigenvalues --    1.66339   1.69324   1.73411   1.75596   1.77853
 Alpha virt. eigenvalues --    1.80081   1.82647   1.86192   1.89531   1.90561
 Alpha virt. eigenvalues --    1.93484   1.94701   1.97972   1.98806   2.00956
 Alpha virt. eigenvalues --    2.02578   2.06423   2.08199   2.11936   2.12956
 Alpha virt. eigenvalues --    2.16053   2.17129   2.25402   2.26864   2.29340
 Alpha virt. eigenvalues --    2.30009   2.31025   2.32623   2.34750   2.35180
 Alpha virt. eigenvalues --    2.35427   2.39350   2.42160   2.46169   2.47998
 Alpha virt. eigenvalues --    2.50367   2.50731   2.54183   2.55745   2.57845
 Alpha virt. eigenvalues --    2.58899   2.60820   2.64177   2.66501   2.70022
 Alpha virt. eigenvalues --    2.71917   2.75191   2.78280   2.79917   2.82232
 Alpha virt. eigenvalues --    2.83362   2.91617   2.92422   2.97313   2.99462
 Alpha virt. eigenvalues --    3.03727   3.08122   3.09330   3.10971   3.14324
 Alpha virt. eigenvalues --    3.18786   3.21935   3.22364   3.25764   3.29398
 Alpha virt. eigenvalues --    3.30976   3.32202   3.35061   3.38350   3.39891
 Alpha virt. eigenvalues --    3.43986   3.45239   3.45640   3.52225   3.53415
 Alpha virt. eigenvalues --    3.57353   3.59009   3.61733   3.64573   3.76163
 Alpha virt. eigenvalues --    3.80698   3.83334   3.91943   3.95164   4.02275
 Alpha virt. eigenvalues --    4.18501   4.23729   4.24329   4.33777   4.36432
 Alpha virt. eigenvalues --    4.41349   4.46361   4.52848   4.56381   4.78138
 Alpha virt. eigenvalues --    5.12957   5.17539   5.17877   5.18626   5.24376
 Alpha virt. eigenvalues --    5.28143   5.37085   5.40468   5.45633   5.51176
 Alpha virt. eigenvalues --    5.78621   5.85401   6.02670   6.22019   6.33862
 Alpha virt. eigenvalues --    6.39996   6.49624   6.53881   6.55226   6.59289
 Alpha virt. eigenvalues --    6.60174   6.75960   6.80044   6.87734   7.04286
 Alpha virt. eigenvalues --    7.11044   7.17683  11.61312  22.36656  22.40427
 Alpha virt. eigenvalues --   22.44343  43.52193  43.92945
          Condensed to atoms (all electrons):
              1          2          3          4          5          6
     1  H    0.552585   0.406145  -0.033853  -0.025016  -0.024928  -0.006895
     2  C    0.406145   4.943454   0.320216   0.398355   0.411528  -0.025931
     3  C   -0.033853   0.320216   4.999818  -0.042533  -0.038012   0.388962
     4  H   -0.025016   0.398355  -0.042533   0.573173  -0.025668  -0.004971
     5  H   -0.024928   0.411528  -0.038012  -0.025668   0.534699   0.007536
     6  H   -0.006895  -0.025931   0.388962  -0.004971   0.007536   0.571884
     7  Si   0.008323  -0.024649   0.415265  -0.002600  -0.009800  -0.030672
     8  H   -0.006502  -0.029944   0.371906   0.008748  -0.004068  -0.027418
     9  O    0.000051  -0.005474  -0.027716   0.005872  -0.000320  -0.000703
    10  O    0.000028  -0.005260  -0.030256   0.000365   0.007699   0.001342
    11  H   -0.000120   0.001474  -0.032807   0.000209   0.000377   0.001034
    12  H   -0.000046  -0.000481  -0.001387   0.001662  -0.000025   0.000027
    13  C    0.000013  -0.000226   0.001510   0.000139   0.000016  -0.000123
    14  H   -0.000004   0.000230  -0.000391  -0.000005  -0.000164   0.000000
    15  H    0.000001  -0.000051   0.000062  -0.000002   0.000079   0.000003
    16  H    0.000000  -0.000077   0.000740  -0.000024  -0.000007   0.000014
              7          8          9         10         11         12
     1  H    0.008323  -0.006502   0.000051   0.000028  -0.000120  -0.000046
     2  C   -0.024649  -0.029944  -0.005474  -0.005260   0.001474  -0.000481
     3  C    0.415265   0.371906  -0.027716  -0.030256  -0.032807  -0.001387
     4  H   -0.002600   0.008748   0.005872   0.000365   0.000209   0.001662
     5  H   -0.009800  -0.004068  -0.000320   0.007699   0.000377  -0.000025
     6  H   -0.030672  -0.027418  -0.000703   0.001342   0.001034   0.000027
     7  Si  11.947226  -0.012786   0.394889   0.446341   0.390751  -0.023650
     8  H   -0.012786   0.574480   0.001513   0.001740   0.000845  -0.000077
     9  O    0.394889   0.001513   7.996837  -0.025117  -0.013321   0.289139
    10  O    0.446341   0.001740  -0.025117   7.823023  -0.024815  -0.000443
    11  H    0.390751   0.000845  -0.013321  -0.024815   0.707991   0.002771
    12  H   -0.023650  -0.000077   0.289139  -0.000443   0.002771   0.421300
    13  C   -0.052837   0.000128  -0.007113   0.260139   0.002469   0.000422
    14  H    0.008467   0.000000   0.000146  -0.040542  -0.000209   0.000015
    15  H   -0.017535  -0.000026  -0.000345  -0.042039   0.009245   0.000018
    16  H   -0.002839  -0.000018   0.007256  -0.042187  -0.001723   0.000076
             13         14         15         16
     1  H    0.000013  -0.000004   0.000001   0.000000
     2  C   -0.000226   0.000230  -0.000051  -0.000077
     3  C    0.001510  -0.000391   0.000062   0.000740
     4  H    0.000139  -0.000005  -0.000002  -0.000024
     5  H    0.000016  -0.000164   0.000079  -0.000007
     6  H   -0.000123   0.000000   0.000003   0.000014
     7  Si  -0.052837   0.008467  -0.017535  -0.002839
     8  H    0.000128   0.000000  -0.000026  -0.000018
     9  O   -0.007113   0.000146  -0.000345   0.007256
    10  O    0.260139  -0.040542  -0.042039  -0.042187
    11  H    0.002469  -0.000209   0.009245  -0.001723
    12  H    0.000422   0.000015   0.000018   0.000076
    13  C    4.779528   0.399790   0.417672   0.411968
    14  H    0.399790   0.565005  -0.030350  -0.031945
    15  H    0.417672  -0.030350   0.590668  -0.045484
    16  H    0.411968  -0.031945  -0.045484   0.575933
 Mulliken atomic charges:
              1
     1  H    0.130217
     2  C   -0.389309
     3  C   -0.291523
     4  H    0.112296
     5  H    0.141059
     6  H    0.125911
     7  Si   0.566105
     8  H    0.121480
     9  O   -0.615593
    10  O   -0.330017
    11  H   -0.044170
    12  H    0.310681
    13  C   -0.213496
    14  H    0.129959
    15  H    0.118084
    16  H    0.128317
 Sum of Mulliken atomic charges =   0.00000
 Mulliken charges with hydrogens summed into heavy atoms:
              1
     2  C   -0.005737
     3  C   -0.044133
     7  Si   0.521935
     9  O   -0.304912
    10  O   -0.330017
    13  C    0.162864
 Sum of Mulliken charges with hydrogens summed into heavy atoms =   0.00000
 Electronic spatial extent (au):  <R**2>=            892.5960
 Charge=              0.0000 electrons
 Dipole moment (field-independent basis, Debye):
    X=             -0.3085    Y=             -1.2906    Z=             -0.4548  Tot=              1.4027
 Quadrupole moment (field-independent basis, Debye-Ang):
   XX=            -40.5770   YY=            -50.6937   ZZ=            -42.7754
   XY=             -1.8547   XZ=             -0.2676   YZ=             -1.8681
 Traceless Quadrupole moment (field-independent basis, Debye-Ang):
   XX=              4.1050   YY=             -6.0117   ZZ=              1.9067
   XY=             -1.8547   XZ=             -0.2676   YZ=             -1.8681
 Octapole moment (field-independent basis, Debye-Ang**2):
  XXX=             14.2770  YYY=            -10.3693  ZZZ=             -8.7385  XYY=             -1.7316
  XXY=             -2.9379  XXZ=             -1.4275  XZZ=              0.8374  YZZ=              5.5313
  YYZ=             -4.6235  XYZ=              2.1047
 Hexadecapole moment (field-independent basis, Debye-Ang**3):
 XXXX=           -697.9139 YYYY=           -325.5289 ZZZZ=           -175.2324 XXXY=            -12.4193
 XXXZ=             -7.9113 YYYX=            -13.3727 YYYZ=            -10.6778 ZZZX=             -3.3711
 ZZZY=            -16.8522 XXYY=           -166.7231 XXZZ=           -150.4043 YYZZ=            -67.0772
 XXYZ=              0.2953 YYXZ=             -1.0414 ZZXY=             -5.0056
 N-N= 3.227213520885D+02 E-N=-1.969051489632D+03  KE= 5.579498333109D+02
 1\1\GINC-TARSUS2\SP\RPBE1PBE\def2TZVP\C3H10O2Si1\RENATO\10-Aug-2018\0\
 \#SP PBE1PBE/Def2TZVP geom=connectivity\\Structure: 280\\0,1\H,0,0.,0.
 ,0.\C,0,1.093,0.,0.\C,0,1.655,1.421,0.\H,0,1.41,-0.56,-0.885\H,0,1.424
 ,-0.557,0.88\H,0,1.308,1.969,-0.883\Si,0,3.513,1.515,0.035\H,0,1.282,1
 .975,0.868\O,0,4.309,0.681,-1.427\O,0,3.968,0.824,1.454\H,0,4.029,2.90
 6,-0.04\H,0,4.07,-0.23,-1.601\C,0,5.301,0.766,1.905\H,0,5.308,0.322,2.
 902\H,0,5.747,1.766,1.967\H,0,5.921,0.153,1.244\\Version=EM64L-G09RevC
 .01\State=1-A\HF=-560.0432613\RMSD=9.849e-09\Dipole=-0.2939142,-0.2336
 596,0.4044575\Quadrupole=1.0023018,1.0707205,-2.0730222,-0.9818136,3.4
 993396,1.7569816\PG=C01 [X(C3H10O2Si1)]\\@


 SI MONUMENTUM REQUIRIS, CIRCUMSPICE
     -- FROM SIR CHRISTOPHER WREN'S TOMBSTONE
 Job cpu time:  0 days  0 hours 13 minutes  2.3 seconds.
 File lengths (MBytes):  RWF=     40 Int=      0 D2E=      0 Chk=      3 Scr=      1
 Normal termination of Gaussian 09 at Fri Aug 10 03:11:07 2018.
