 Entering Gaussian System, Link 0=g09
 Initial command:
 /usr/local/gaussian09/g09/l1.exe /scratch/renato/Gau-11289.inp -scrdir=/scratch/renato/
 Entering Link 1 = /usr/local/gaussian09/g09/l1.exe PID=     11291.
  
 Copyright (c) 1988,1990,1992,1993,1995,1998,2003,2009,2011,
            Gaussian, Inc.  All Rights Reserved.
  
 This is part of the Gaussian(R) 09 program.  It is based on
 the Gaussian(R) 03 system (copyright 2003, Gaussian, Inc.),
 the Gaussian(R) 98 system (copyright 1998, Gaussian, Inc.),
 the Gaussian(R) 94 system (copyright 1995, Gaussian, Inc.),
 the Gaussian 92(TM) system (copyright 1992, Gaussian, Inc.),
 the Gaussian 90(TM) system (copyright 1990, Gaussian, Inc.),
 the Gaussian 88(TM) system (copyright 1988, Gaussian, Inc.),
 the Gaussian 86(TM) system (copyright 1986, Carnegie Mellon
 University), and the Gaussian 82(TM) system (copyright 1983,
 Carnegie Mellon University). Gaussian is a federally registered
 trademark of Gaussian, Inc.
  
 This software contains proprietary and confidential information,
 including trade secrets, belonging to Gaussian, Inc.
  
 This software is provided under written license and may be
 used, copied, transmitted, or stored only in accord with that
 written license.
  
 The following legend is applicable only to US Government
 contracts under FAR:
  
                    RESTRICTED RIGHTS LEGEND
  
 Use, reproduction and disclosure by the US Government is
 subject to restrictions as set forth in subparagraphs (a)
 and (c) of the Commercial Computer Software - Restricted
 Rights clause in FAR 52.227-19.
  
 Gaussian, Inc.
 340 Quinnipiac St., Bldg. 40, Wallingford CT 06492
  
  
 ---------------------------------------------------------------
 Warning -- This program may not be used in any manner that
 competes with the business of Gaussian, Inc. or will provide
 assistance to any competitor of Gaussian, Inc.  The licensee
 of this program is prohibited from giving any competitor of
 Gaussian, Inc. access to this program.  By using this program,
 the user acknowledges that Gaussian, Inc. is engaged in the
 business of creating and licensing software in the field of
 computational chemistry and represents and warrants to the
 licensee that it is not a competitor of Gaussian, Inc. and that
 it will not use this program in any manner prohibited above.
 ---------------------------------------------------------------
  

 Cite this work as:
 Gaussian 09, Revision C.01,
 M. J. Frisch, G. W. Trucks, H. B. Schlegel, G. E. Scuseria, 
 M. A. Robb, J. R. Cheeseman, G. Scalmani, V. Barone, B. Mennucci, 
 G. A. Petersson, H. Nakatsuji, M. Caricato, X. Li, H. P. Hratchian, 
 A. F. Izmaylov, J. Bloino, G. Zheng, J. L. Sonnenberg, M. Hada, 
 M. Ehara, K. Toyota, R. Fukuda, J. Hasegawa, M. Ishida, T. Nakajima, 
 Y. Honda, O. Kitao, H. Nakai, T. Vreven, J. A. Montgomery, Jr., 
 J. E. Peralta, F. Ogliaro, M. Bearpark, J. J. Heyd, E. Brothers, 
 K. N. Kudin, V. N. Staroverov, T. Keith, R. Kobayashi, J. Normand, 
 K. Raghavachari, A. Rendell, J. C. Burant, S. S. Iyengar, J. Tomasi, 
 M. Cossi, N. Rega, J. M. Millam, M. Klene, J. E. Knox, J. B. Cross, 
 V. Bakken, C. Adamo, J. Jaramillo, R. Gomperts, R. E. Stratmann, 
 O. Yazyev, A. J. Austin, R. Cammi, C. Pomelli, J. W. Ochterski, 
 R. L. Martin, K. Morokuma, V. G. Zakrzewski, G. A. Voth, 
 P. Salvador, J. J. Dannenberg, S. Dapprich, A. D. Daniels, 
 O. Farkas, J. B. Foresman, J. V. Ortiz, J. Cioslowski, 
 and D. J. Fox, Gaussian, Inc., Wallingford CT, 2010.
 
 ******************************************
 Gaussian 09:  EM64L-G09RevC.01 23-Sep-2011
                10-Aug-2018 
 ******************************************
 %nproc=2
 Will use up to    2 processors via shared memory.
 %mem=256MB
 %RWF=bm3.rwf
 %chk=bm3291
 %NoSave
 --------------------------------------
 #SP PBE1PBE/Def2TZVP geom=connectivity
 --------------------------------------
 1/38=1,57=2/1;
 2/12=2,17=6,18=5,40=1/2;
 3/5=44,7=101,11=2,16=1,25=1,30=1,74=-13/1,2,3;
 4//1;
 5/5=2,38=5/2;
 6/7=2,8=2,9=2,10=2,28=1/1;
 99/5=1,9=1/99;
 --------------
 Structure: 291
 --------------
 Charge =  0 Multiplicity = 1
 Symbolic Z-Matrix:
 H                     0.        0.        0. 
 C                     1.093     0.        0. 
 C                     1.655     1.421     0. 
 H                     1.41     -0.56     -0.885 
 H                     1.424    -0.557     0.88 
 H                     1.308     1.969    -0.883 
 Si                    3.513     1.515     0.035 
 H                     1.282     1.975     0.868 
 O                     4.318     0.671    -1.444 
 O                     3.968     0.824     1.454 
 H                     4.029     2.906    -0.04 
 H                     4.079    -0.24     -1.618 
 C                     5.301     0.766     1.905 
 H                     5.308     0.322     2.902 
 H                     5.747     1.766     1.967 
 H                     5.921     0.153     1.244 
 
                          Input orientation:                          
 ---------------------------------------------------------------------
 Center     Atomic      Atomic             Coordinates (Angstroms)
 Number     Number       Type             X           Y           Z
 ---------------------------------------------------------------------
      1          1           0        0.000000    0.000000    0.000000
      2          6           0        1.093000    0.000000    0.000000
      3          6           0        1.655000    1.421000    0.000000
      4          1           0        1.410000   -0.560000   -0.885000
      5          1           0        1.424000   -0.557000    0.880000
      6          1           0        1.308000    1.969000   -0.883000
      7         14           0        3.513000    1.515000    0.035000
      8          1           0        1.282000    1.975000    0.868000
      9          8           0        4.318000    0.671000   -1.444000
     10          8           0        3.968000    0.824000    1.454000
     11          1           0        4.029000    2.906000   -0.040000
     12          1           0        4.079000   -0.240000   -1.618000
     13          6           0        5.301000    0.766000    1.905000
     14          1           0        5.308000    0.322000    2.902000
     15          1           0        5.747000    1.766000    1.967000
     16          1           0        5.921000    0.153000    1.244000
 ---------------------------------------------------------------------
                    Distance matrix (angstroms):
                    1          2          3          4          5
     1  H    0.000000
     2  C    1.093000   0.000000
     3  C    2.181345   1.528098   0.000000
     4  H    1.756395   1.094218   2.183486   0.000000
     5  H    1.764207   1.092799   2.177210   1.765058   0.000000
     6  H    2.523393   2.168611   1.095629   2.531057   3.082580
     7  Si   3.825914   2.855320   1.860706   3.094291   3.061230
     8  H    2.509497   2.165588   1.095203   3.084740   2.536007
     9  O    4.602228   3.596665   3.120770   3.206915   3.909501
    10  O    4.305591   3.325465   2.796515   3.732257   2.951029
    11  H    4.967824   4.131166   2.800482   4.425646   4.429988
    12  H    4.394743   3.404662   3.354493   2.786261   3.659169
    13  C    5.684750   4.682205   4.165497   4.968124   4.222805
    14  H    6.058065   5.127525   4.793101   5.505788   4.466160
    15  H    6.325809   5.352342   4.553304   5.688036   5.026552
    16  H    6.052205   4.988039   4.621051   5.038862   4.567232
                    6          7          8          9         10
     6  H    0.000000
     7  Si   2.431227   0.000000
     8  H    1.751203   2.425459   0.000000
     9  O    3.325601   1.883561   4.032748   0.000000
    10  O    3.721316   1.642579   2.980401   2.923066   0.000000
    11  H    2.998743   1.485517   3.039282   2.655176   2.563295
    12  H    3.619164   2.476447   4.348520   0.957767   3.252937
    13  C    5.016393   2.693482   4.323125   3.491578   1.408423
    14  H    5.747942   3.586776   4.803982   4.470975   2.035757
    15  H    5.279056   2.964183   4.603011   3.856940   2.077348
    16  H    5.394604   3.019137   4.998138   3.172267   2.075705
                   11         12         13         14         15
    11  H    0.000000
    12  H    3.519929   0.000000
    13  C    3.159210   3.862234   0.000000
    14  H    4.119255   4.717699   1.091418   0.000000
    15  H    2.877355   4.433789   1.096704   1.775410   0.000000
    16  H    3.578733   3.426143   1.094116   1.775752   1.776168
                   16
    16  H    0.000000
 Stoichiometry    C3H10O2Si
 Framework group  C1[X(C3H10O2Si)]
 Deg. of freedom    42
 Full point group                 C1      NOp   1
 Largest Abelian subgroup         C1      NOp   1
 Largest concise Abelian subgroup C1      NOp   1
                         Standard orientation:                         
 ---------------------------------------------------------------------
 Center     Atomic      Atomic             Coordinates (Angstroms)
 Number     Number       Type             X           Y           Z
 ---------------------------------------------------------------------
      1          1           0       -3.235935   -1.150187   -0.610750
      2          6           0       -2.238692   -0.715862   -0.718070
      3          6           0       -1.625837   -0.373348    0.639199
      4          1           0       -2.345754    0.171860   -1.348784
      5          1           0       -1.621096   -1.435212   -1.261503
      6          1           0       -2.259875    0.341631    1.175112
      7         14           0        0.090118    0.340865    0.551899
      8          1           0       -1.577146   -1.268291    1.268623
      9          8           0        0.168789    1.941490   -0.437856
     10          8           0        1.028745   -0.832998   -0.110740
     11          1           0        0.628649    0.731120    1.880224
     12          1           0       -0.183600    1.929109   -1.328354
     13          6           0        2.422726   -0.720301   -0.277384
     14          1           0        2.799844   -1.665838   -0.671005
     15          1           0        2.925089   -0.515852    0.675817
     16          1           0        2.678706    0.078683   -0.979658
 ---------------------------------------------------------------------
 Rotational constants (GHZ):      3.6365997      1.8837163      1.5239545
 Standard basis: def2TZVP (5D, 7F)
 There are   252 symmetry adapted basis functions of A   symmetry.
 Integral buffers will be    131072 words long.
 Raffenetti 2 integral format.
 Two-electron integral symmetry is turned on.
   252 basis functions,   404 primitive gaussians,   282 cartesian basis functions
    29 alpha electrons       29 beta electrons
       nuclear repulsion energy       322.0865165587 Hartrees.
 NAtoms=   16 NActive=   16 NUniq=   16 SFac= 1.00D+00 NAtFMM=   60 NAOKFM=F Big=F
 One-electron integrals computed using PRISM.
   1 Symmetry operations used in ECPInt.
 ECPInt:  NShTT=    5886 NPrTT=   17754 LenC2=    5772 LenP2D=   13852.
 LDataN:  DoStor=T MaxTD1= 6 Len=  172
 NBasis=   252 RedAO= T  NBF=   252
 NBsUse=   252 1.00D-06 NBFU=   252
 Harris functional with IExCor= 1009 diagonalized for initial guess.
 ExpMin= 7.01D-02 ExpMax= 4.48D+04 ExpMxC= 1.53D+03 IAcc=2 IRadAn=         4 AccDes= 0.00D+00
 HarFok:  IExCor= 1009 AccDes= 0.00D+00 IRadAn=         4 IDoV= 1
 ScaDFX=  1.000000  1.000000  1.000000  1.000000
 FoFCou: FMM=F IPFlag=           0 FMFlag=      100000 FMFlg1=           0
         NFxFlg=           0 DoJE=T BraDBF=F KetDBF=T FulRan=T
         Omega=  0.000000  0.000000  1.000000  0.000000  0.000000 ICntrl=     500 IOpCl=  0
         NMat0=    1 NMatS0=    1 NMatT0=    0 NMatD0=    1 NMtDS0=    0 NMtDT0=    0
         I1Cent=           4 NGrid=           0.
 Petite list used in FoFCou.
 Initial guess orbital symmetries:
       Occupied  (A) (A) (A) (A) (A) (A) (A) (A) (A) (A) (A) (A)
                 (A) (A) (A) (A) (A) (A) (A) (A) (A) (A) (A) (A)
                 (A) (A) (A) (A) (A)
       Virtual   (A) (A) (A) (A) (A) (A) (A) (A) (A) (A) (A) (A)
                 (A) (A) (A) (A) (A) (A) (A) (A) (A) (A) (A) (A)
                 (A) (A) (A) (A) (A) (A) (A) (A) (A) (A) (A) (A)
                 (A) (A) (A) (A) (A) (A) (A) (A) (A) (A) (A) (A)
                 (A) (A) (A) (A) (A) (A) (A) (A) (A) (A) (A) (A)
                 (A) (A) (A) (A) (A) (A) (A) (A) (A) (A) (A) (A)
                 (A) (A) (A) (A) (A) (A) (A) (A) (A) (A) (A) (A)
                 (A) (A) (A) (A) (A) (A) (A) (A) (A) (A) (A) (A)
                 (A) (A) (A) (A) (A) (A) (A) (A) (A) (A) (A) (A)
                 (A) (A) (A) (A) (A) (A) (A) (A) (A) (A) (A) (A)
                 (A) (A) (A) (A) (A) (A) (A) (A) (A) (A) (A) (A)
                 (A) (A) (A) (A) (A) (A) (A) (A) (A) (A) (A) (A)
                 (A) (A) (A) (A) (A) (A) (A) (A) (A) (A) (A) (A)
                 (A) (A) (A) (A) (A) (A) (A) (A) (A) (A) (A) (A)
                 (A) (A) (A) (A) (A) (A) (A) (A) (A) (A) (A) (A)
                 (A) (A) (A) (A) (A) (A) (A) (A) (A) (A) (A) (A)
                 (A) (A) (A) (A) (A) (A) (A) (A) (A) (A) (A) (A)
                 (A) (A) (A) (A) (A) (A) (A) (A) (A) (A) (A) (A)
                 (A) (A) (A) (A) (A) (A) (A)
 The electronic state of the initial guess is 1-A.
 Requested convergence on RMS density matrix=1.00D-08 within 128 cycles.
 Requested convergence on MAX density matrix=1.00D-06.
 Requested convergence on             energy=1.00D-06.
 No special actions if energy rises.
 Integral accuracy reduced to 1.0D-05 until final iterations.
 Initial convergence to 1.0D-05 achieved.  Increase integral accuracy.
 SCF Done:  E(RPBE1PBE) =  -560.040157074     A.U. after   14 cycles
             Convg  =    0.2548D-08             -V/T =  2.0038

 **********************************************************************

            Population analysis using the SCF density.

 **********************************************************************

 Orbital symmetries:
       Occupied  (A) (A) (A) (A) (A) (A) (A) (A) (A) (A) (A) (A)
                 (A) (A) (A) (A) (A) (A) (A) (A) (A) (A) (A) (A)
                 (A) (A) (A) (A) (A)
       Virtual   (A) (A) (A) (A) (A) (A) (A) (A) (A) (A) (A) (A)
                 (A) (A) (A) (A) (A) (A) (A) (A) (A) (A) (A) (A)
                 (A) (A) (A) (A) (A) (A) (A) (A) (A) (A) (A) (A)
                 (A) (A) (A) (A) (A) (A) (A) (A) (A) (A) (A) (A)
                 (A) (A) (A) (A) (A) (A) (A) (A) (A) (A) (A) (A)
                 (A) (A) (A) (A) (A) (A) (A) (A) (A) (A) (A) (A)
                 (A) (A) (A) (A) (A) (A) (A) (A) (A) (A) (A) (A)
                 (A) (A) (A) (A) (A) (A) (A) (A) (A) (A) (A) (A)
                 (A) (A) (A) (A) (A) (A) (A) (A) (A) (A) (A) (A)
                 (A) (A) (A) (A) (A) (A) (A) (A) (A) (A) (A) (A)
                 (A) (A) (A) (A) (A) (A) (A) (A) (A) (A) (A) (A)
                 (A) (A) (A) (A) (A) (A) (A) (A) (A) (A) (A) (A)
                 (A) (A) (A) (A) (A) (A) (A) (A) (A) (A) (A) (A)
                 (A) (A) (A) (A) (A) (A) (A) (A) (A) (A) (A) (A)
                 (A) (A) (A) (A) (A) (A) (A) (A) (A) (A) (A) (A)
                 (A) (A) (A) (A) (A) (A) (A) (A) (A) (A) (A) (A)
                 (A) (A) (A) (A) (A) (A) (A) (A) (A) (A) (A) (A)
                 (A) (A) (A) (A) (A) (A) (A) (A) (A) (A) (A) (A)
                 (A) (A) (A) (A) (A) (A) (A)
 The electronic state is 1-A.
 Alpha  occ. eigenvalues --  -66.27849 -19.21135 -19.18608 -10.26881 -10.21982
 Alpha  occ. eigenvalues --  -10.21812  -5.35145  -3.68684  -3.68570  -3.68401
 Alpha  occ. eigenvalues --   -1.04861  -0.97957  -0.78735  -0.71081  -0.64533
 Alpha  occ. eigenvalues --   -0.54991  -0.49547  -0.47338  -0.47024  -0.46094
 Alpha  occ. eigenvalues --   -0.43934  -0.41716  -0.38259  -0.36791  -0.35678
 Alpha  occ. eigenvalues --   -0.34077  -0.31502  -0.30718  -0.30047
 Alpha virt. eigenvalues --    0.01880   0.04559   0.05449   0.07582   0.08725
 Alpha virt. eigenvalues --    0.09365   0.10055   0.10645   0.11992   0.12857
 Alpha virt. eigenvalues --    0.13390   0.14691   0.15290   0.15866   0.18828
 Alpha virt. eigenvalues --    0.20781   0.21650   0.22686   0.24130   0.24747
 Alpha virt. eigenvalues --    0.26376   0.26619   0.28613   0.29614   0.30539
 Alpha virt. eigenvalues --    0.32318   0.36485   0.38968   0.39892   0.40598
 Alpha virt. eigenvalues --    0.41698   0.42258   0.43780   0.44845   0.45413
 Alpha virt. eigenvalues --    0.45731   0.47191   0.47738   0.49016   0.49640
 Alpha virt. eigenvalues --    0.50350   0.53187   0.55199   0.56511   0.60650
 Alpha virt. eigenvalues --    0.60683   0.62393   0.63478   0.65486   0.68135
 Alpha virt. eigenvalues --    0.72309   0.73572   0.74026   0.76551   0.79625
 Alpha virt. eigenvalues --    0.81504   0.83366   0.86004   0.87419   0.91556
 Alpha virt. eigenvalues --    0.93123   0.94820   0.96021   0.98813   1.00679
 Alpha virt. eigenvalues --    1.02446   1.04664   1.06453   1.07974   1.11098
 Alpha virt. eigenvalues --    1.11690   1.13055   1.14576   1.18155   1.18878
 Alpha virt. eigenvalues --    1.23114   1.26832   1.32074   1.35646   1.40009
 Alpha virt. eigenvalues --    1.40667   1.44864   1.46454   1.50270   1.51754
 Alpha virt. eigenvalues --    1.53098   1.54004   1.54442   1.55455   1.57349
 Alpha virt. eigenvalues --    1.58984   1.60533   1.62237   1.62911   1.64049
 Alpha virt. eigenvalues --    1.66023   1.69188   1.73269   1.75402   1.77724
 Alpha virt. eigenvalues --    1.80018   1.82586   1.86103   1.89448   1.90793
 Alpha virt. eigenvalues --    1.93148   1.94624   1.97744   1.98728   2.00708
 Alpha virt. eigenvalues --    2.02210   2.06257   2.07995   2.11896   2.12836
 Alpha virt. eigenvalues --    2.15935   2.17018   2.25287   2.26647   2.29212
 Alpha virt. eigenvalues --    2.29788   2.30873   2.32572   2.34703   2.35104
 Alpha virt. eigenvalues --    2.35391   2.39228   2.42007   2.46049   2.47873
 Alpha virt. eigenvalues --    2.50264   2.50659   2.54125   2.55706   2.57799
 Alpha virt. eigenvalues --    2.58841   2.60768   2.64077   2.66472   2.69924
 Alpha virt. eigenvalues --    2.71828   2.74994   2.77918   2.79691   2.82055
 Alpha virt. eigenvalues --    2.83184   2.91444   2.92235   2.96968   2.99408
 Alpha virt. eigenvalues --    3.03520   3.08017   3.09277   3.10910   3.14252
 Alpha virt. eigenvalues --    3.18591   3.21877   3.22294   3.25684   3.29347
 Alpha virt. eigenvalues --    3.30862   3.32153   3.34768   3.38080   3.39841
 Alpha virt. eigenvalues --    3.43933   3.45152   3.45584   3.52095   3.53367
 Alpha virt. eigenvalues --    3.57200   3.58813   3.61673   3.64526   3.76104
 Alpha virt. eigenvalues --    3.80651   3.83117   3.91878   3.95095   4.02182
 Alpha virt. eigenvalues --    4.18441   4.23683   4.24250   4.33729   4.36382
 Alpha virt. eigenvalues --    4.41312   4.46304   4.52787   4.56295   4.78084
 Alpha virt. eigenvalues --    5.13086   5.17693   5.17995   5.18682   5.24248
 Alpha virt. eigenvalues --    5.27941   5.36954   5.40322   5.45715   5.51193
 Alpha virt. eigenvalues --    5.78497   5.85275   6.02574   6.22114   6.32873
 Alpha virt. eigenvalues --    6.39864   6.49388   6.53514   6.54680   6.59073
 Alpha virt. eigenvalues --    6.59839   6.75846   6.79715   6.86220   7.04154
 Alpha virt. eigenvalues --    7.10645   7.17402  11.58544  22.36611  22.40372
 Alpha virt. eigenvalues --   22.44255  43.51412  43.92798
          Condensed to atoms (all electrons):
              1          2          3          4          5          6
     1  H    0.552704   0.405909  -0.033872  -0.024970  -0.024950  -0.006895
     2  C    0.405909   4.944104   0.320646   0.398016   0.411384  -0.025629
     3  C   -0.033872   0.320646   4.997113  -0.042319  -0.037863   0.389099
     4  H   -0.024970   0.398016  -0.042319   0.571976  -0.025480  -0.004971
     5  H   -0.024950   0.411384  -0.037863  -0.025480   0.534786   0.007516
     6  H   -0.006895  -0.025629   0.389099  -0.004971   0.007516   0.571247
     7  Si   0.008379  -0.025236   0.414552  -0.002278  -0.009922  -0.030816
     8  H   -0.006468  -0.030113   0.372001   0.008737  -0.004068  -0.027500
     9  O    0.000055  -0.005683  -0.026761   0.005991  -0.000313  -0.000688
    10  O    0.000029  -0.005274  -0.030092   0.000357   0.007707   0.001348
    11  H   -0.000120   0.001449  -0.032630   0.000209   0.000374   0.001006
    12  H   -0.000043  -0.000543  -0.001321   0.001634  -0.000029   0.000022
    13  C    0.000014  -0.000244   0.001476   0.000144   0.000025  -0.000123
    14  H   -0.000004   0.000231  -0.000389  -0.000006  -0.000165   0.000000
    15  H    0.000001  -0.000051   0.000069  -0.000002   0.000079   0.000003
    16  H    0.000000  -0.000071   0.000733  -0.000025  -0.000009   0.000015
              7          8          9         10         11         12
     1  H    0.008379  -0.006468   0.000055   0.000029  -0.000120  -0.000043
     2  C   -0.025236  -0.030113  -0.005683  -0.005274   0.001449  -0.000543
     3  C    0.414552   0.372001  -0.026761  -0.030092  -0.032630  -0.001321
     4  H   -0.002278   0.008737   0.005991   0.000357   0.000209   0.001634
     5  H   -0.009922  -0.004068  -0.000313   0.007707   0.000374  -0.000029
     6  H   -0.030816  -0.027500  -0.000688   0.001348   0.001006   0.000022
     7  Si  11.953621  -0.012644   0.388372   0.446102   0.390594  -0.023341
     8  H   -0.012644   0.574162   0.001480   0.001721   0.000854  -0.000078
     9  O    0.388372   0.001480   8.009231  -0.024186  -0.013015   0.288082
    10  O    0.446102   0.001721  -0.024186   7.821046  -0.024660  -0.000404
    11  H    0.390594   0.000854  -0.013015  -0.024660   0.705921   0.002657
    12  H   -0.023341  -0.000078   0.288082  -0.000404   0.002657   0.422857
    13  C   -0.053141   0.000133  -0.007108   0.259929   0.002469   0.000403
    14  H    0.008530   0.000001   0.000150  -0.040490  -0.000207   0.000014
    15  H   -0.017506  -0.000026  -0.000336  -0.041972   0.009160   0.000020
    16  H   -0.002679  -0.000018   0.007303  -0.042022  -0.001697   0.000059
             13         14         15         16
     1  H    0.000014  -0.000004   0.000001   0.000000
     2  C   -0.000244   0.000231  -0.000051  -0.000071
     3  C    0.001476  -0.000389   0.000069   0.000733
     4  H    0.000144  -0.000006  -0.000002  -0.000025
     5  H    0.000025  -0.000165   0.000079  -0.000009
     6  H   -0.000123   0.000000   0.000003   0.000015
     7  Si  -0.053141   0.008530  -0.017506  -0.002679
     8  H    0.000133   0.000001  -0.000026  -0.000018
     9  O   -0.007108   0.000150  -0.000336   0.007303
    10  O    0.259929  -0.040490  -0.041972  -0.042022
    11  H    0.002469  -0.000207   0.009160  -0.001697
    12  H    0.000403   0.000014   0.000020   0.000059
    13  C    4.780726   0.399540   0.417615   0.411907
    14  H    0.399540   0.564806  -0.030340  -0.031766
    15  H    0.417615  -0.030340   0.590409  -0.045278
    16  H    0.411907  -0.031766  -0.045278   0.574398
 Mulliken atomic charges:
              1
     1  H    0.130232
     2  C   -0.388894
     3  C   -0.290439
     4  H    0.112988
     5  H    0.140929
     6  H    0.126367
     7  Si   0.567414
     8  H    0.121827
     9  O   -0.622574
    10  O   -0.329137
    11  H   -0.042365
    12  H    0.310010
    13  C   -0.213763
    14  H    0.130097
    15  H    0.118156
    16  H    0.129151
 Sum of Mulliken atomic charges =   0.00000
 Mulliken charges with hydrogens summed into heavy atoms:
              1
     2  C   -0.004745
     3  C   -0.042246
     7  Si   0.525050
     9  O   -0.312563
    10  O   -0.329137
    13  C    0.163641
 Sum of Mulliken charges with hydrogens summed into heavy atoms =   0.00000
 Electronic spatial extent (au):  <R**2>=            895.3313
 Charge=              0.0000 electrons
 Dipole moment (field-independent basis, Debye):
    X=             -0.3107    Y=             -1.3689    Z=             -0.4172  Tot=              1.4644
 Quadrupole moment (field-independent basis, Debye-Ang):
   XX=            -40.5161   YY=            -50.8493   ZZ=            -42.7640
   XY=             -1.8767   XZ=             -0.2742   YZ=             -1.8867
 Traceless Quadrupole moment (field-independent basis, Debye-Ang):
   XX=              4.1937   YY=             -6.1395   ZZ=              1.9458
   XY=             -1.8767   XZ=             -0.2742   YZ=             -1.8867
 Octapole moment (field-independent basis, Debye-Ang**2):
  XXX=             14.2642  YYY=            -10.8098  ZZZ=             -8.5445  XYY=             -1.8256
  XXY=             -3.0297  XXZ=             -1.4461  XZZ=              0.8590  YZZ=              5.5579
  YYZ=             -4.7666  XYZ=              2.1265
 Hexadecapole moment (field-independent basis, Debye-Ang**3):
 XXXX=           -697.1547 YYYY=           -329.3402 ZZZZ=           -175.9421 XXXY=            -12.4317
 XXXZ=             -8.0403 YYYX=            -13.5474 YYYZ=            -11.1616 ZZZX=             -3.4287
 ZZZY=            -16.5444 XXYY=           -167.2248 XXZZ=           -150.3170 YYZZ=            -67.3281
 XXYZ=              0.3990 YYXZ=             -1.0023 ZZXY=             -5.0114
 N-N= 3.220865165587D+02 E-N=-1.967750479977D+03  KE= 5.579312845644D+02
 1\1\GINC-TARSUS2\SP\RPBE1PBE\def2TZVP\C3H10O2Si1\RENATO\10-Aug-2018\0\
 \#SP PBE1PBE/Def2TZVP geom=connectivity\\Structure: 291\\0,1\H,0,0.,0.
 ,0.\C,0,1.093,0.,0.\C,0,1.655,1.421,0.\H,0,1.41,-0.56,-0.885\H,0,1.424
 ,-0.557,0.88\H,0,1.308,1.969,-0.883\Si,0,3.513,1.515,0.035\H,0,1.282,1
 .975,0.868\O,0,4.318,0.671,-1.444\O,0,3.968,0.824,1.454\H,0,4.029,2.90
 6,-0.04\H,0,4.079,-0.24,-1.618\C,0,5.301,0.766,1.905\H,0,5.308,0.322,2
 .902\H,0,5.747,1.766,1.967\H,0,5.921,0.153,1.244\\Version=EM64L-G09Rev
 C.01\State=1-A\HF=-560.0401571\RMSD=2.548e-09\Dipole=-0.3094298,-0.216
 9364,0.4349081\Quadrupole=1.0230095,1.133701,-2.1567105,-0.9647684,3.5
 835507,1.7368317\PG=C01 [X(C3H10O2Si1)]\\@


 A SLIP OF THE FOOT YOU MAY SOON RECOVER, BUT A SLIP OF THE TONGUE
 YOU MAY NEVER GET OVER. -- BEN FRANKLIN
 Job cpu time:  0 days  0 hours 14 minutes 11.6 seconds.
 File lengths (MBytes):  RWF=     40 Int=      0 D2E=      0 Chk=      3 Scr=      1
 Normal termination of Gaussian 09 at Fri Aug 10 04:27:37 2018.
