 Entering Gaussian System, Link 0=g09
 Initial command:
 /usr/local/gaussian09/g09/l1.exe /scratch/renato/Gau-8596.inp -scrdir=/scratch/renato/
 Entering Link 1 = /usr/local/gaussian09/g09/l1.exe PID=      8598.
  
 Copyright (c) 1988,1990,1992,1993,1995,1998,2003,2009,2011,
            Gaussian, Inc.  All Rights Reserved.
  
 This is part of the Gaussian(R) 09 program.  It is based on
 the Gaussian(R) 03 system (copyright 2003, Gaussian, Inc.),
 the Gaussian(R) 98 system (copyright 1998, Gaussian, Inc.),
 the Gaussian(R) 94 system (copyright 1995, Gaussian, Inc.),
 the Gaussian 92(TM) system (copyright 1992, Gaussian, Inc.),
 the Gaussian 90(TM) system (copyright 1990, Gaussian, Inc.),
 the Gaussian 88(TM) system (copyright 1988, Gaussian, Inc.),
 the Gaussian 86(TM) system (copyright 1986, Carnegie Mellon
 University), and the Gaussian 82(TM) system (copyright 1983,
 Carnegie Mellon University). Gaussian is a federally registered
 trademark of Gaussian, Inc.
  
 This software contains proprietary and confidential information,
 including trade secrets, belonging to Gaussian, Inc.
  
 This software is provided under written license and may be
 used, copied, transmitted, or stored only in accord with that
 written license.
  
 The following legend is applicable only to US Government
 contracts under FAR:
  
                    RESTRICTED RIGHTS LEGEND
  
 Use, reproduction and disclosure by the US Government is
 subject to restrictions as set forth in subparagraphs (a)
 and (c) of the Commercial Computer Software - Restricted
 Rights clause in FAR 52.227-19.
  
 Gaussian, Inc.
 340 Quinnipiac St., Bldg. 40, Wallingford CT 06492
  
  
 ---------------------------------------------------------------
 Warning -- This program may not be used in any manner that
 competes with the business of Gaussian, Inc. or will provide
 assistance to any competitor of Gaussian, Inc.  The licensee
 of this program is prohibited from giving any competitor of
 Gaussian, Inc. access to this program.  By using this program,
 the user acknowledges that Gaussian, Inc. is engaged in the
 business of creating and licensing software in the field of
 computational chemistry and represents and warrants to the
 licensee that it is not a competitor of Gaussian, Inc. and that
 it will not use this program in any manner prohibited above.
 ---------------------------------------------------------------
  

 Cite this work as:
 Gaussian 09, Revision C.01,
 M. J. Frisch, G. W. Trucks, H. B. Schlegel, G. E. Scuseria, 
 M. A. Robb, J. R. Cheeseman, G. Scalmani, V. Barone, B. Mennucci, 
 G. A. Petersson, H. Nakatsuji, M. Caricato, X. Li, H. P. Hratchian, 
 A. F. Izmaylov, J. Bloino, G. Zheng, J. L. Sonnenberg, M. Hada, 
 M. Ehara, K. Toyota, R. Fukuda, J. Hasegawa, M. Ishida, T. Nakajima, 
 Y. Honda, O. Kitao, H. Nakai, T. Vreven, J. A. Montgomery, Jr., 
 J. E. Peralta, F. Ogliaro, M. Bearpark, J. J. Heyd, E. Brothers, 
 K. N. Kudin, V. N. Staroverov, T. Keith, R. Kobayashi, J. Normand, 
 K. Raghavachari, A. Rendell, J. C. Burant, S. S. Iyengar, J. Tomasi, 
 M. Cossi, N. Rega, J. M. Millam, M. Klene, J. E. Knox, J. B. Cross, 
 V. Bakken, C. Adamo, J. Jaramillo, R. Gomperts, R. E. Stratmann, 
 O. Yazyev, A. J. Austin, R. Cammi, C. Pomelli, J. W. Ochterski, 
 R. L. Martin, K. Morokuma, V. G. Zakrzewski, G. A. Voth, 
 P. Salvador, J. J. Dannenberg, S. Dapprich, A. D. Daniels, 
 O. Farkas, J. B. Foresman, J. V. Ortiz, J. Cioslowski, 
 and D. J. Fox, Gaussian, Inc., Wallingford CT, 2010.
 
 ******************************************
 Gaussian 09:  EM64L-G09RevC.01 23-Sep-2011
                10-Aug-2018 
 ******************************************
 %nproc=2
 Will use up to    2 processors via shared memory.
 %mem=256MB
 %RWF=bm3.rwf
 %chk=bm3257
 %NoSave
 --------------------------------------
 #SP PBE1PBE/Def2TZVP geom=connectivity
 --------------------------------------
 1/38=1,57=2/1;
 2/12=2,17=6,18=5,40=1/2;
 3/5=44,7=101,11=2,16=1,25=1,30=1,74=-13/1,2,3;
 4//1;
 5/5=2,38=5/2;
 6/7=2,8=2,9=2,10=2,28=1/1;
 99/5=1,9=1/99;
 --------------
 Structure: 257
 --------------
 Charge =  0 Multiplicity = 1
 Symbolic Z-Matrix:
 H                     0.        0.        0. 
 C                     1.093     0.        0. 
 C                     1.655     1.421     0. 
 H                     1.41     -0.56     -0.885 
 H                     1.424    -0.557     0.88 
 H                     1.308     1.969    -0.883 
 Si                    3.513     1.515     0.035 
 H                     1.282     1.975     0.868 
 O                     4.289     0.702    -1.391 
 O                     3.968     0.824     1.454 
 H                     4.029     2.906    -0.04 
 H                     4.05     -0.21     -1.565 
 C                     5.301     0.766     1.905 
 H                     5.308     0.322     2.902 
 H                     5.747     1.766     1.967 
 H                     5.921     0.153     1.244 
 
                          Input orientation:                          
 ---------------------------------------------------------------------
 Center     Atomic      Atomic             Coordinates (Angstroms)
 Number     Number       Type             X           Y           Z
 ---------------------------------------------------------------------
      1          1           0        0.000000    0.000000    0.000000
      2          6           0        1.093000    0.000000    0.000000
      3          6           0        1.655000    1.421000    0.000000
      4          1           0        1.410000   -0.560000   -0.885000
      5          1           0        1.424000   -0.557000    0.880000
      6          1           0        1.308000    1.969000   -0.883000
      7         14           0        3.513000    1.515000    0.035000
      8          1           0        1.282000    1.975000    0.868000
      9          8           0        4.289000    0.702000   -1.391000
     10          8           0        3.968000    0.824000    1.454000
     11          1           0        4.029000    2.906000   -0.040000
     12          1           0        4.050000   -0.210000   -1.565000
     13          6           0        5.301000    0.766000    1.905000
     14          1           0        5.308000    0.322000    2.902000
     15          1           0        5.747000    1.766000    1.967000
     16          1           0        5.921000    0.153000    1.244000
 ---------------------------------------------------------------------
                    Distance matrix (angstroms):
                    1          2          3          4          5
     1  H    0.000000
     2  C    1.093000   0.000000
     3  C    2.181345   1.528098   0.000000
     4  H    1.756395   1.094218   2.183486   0.000000
     5  H    1.764207   1.092799   2.177210   1.765058   0.000000
     6  H    2.523393   2.168611   1.095629   2.531057   3.082580
     7  Si   3.825914   2.855320   1.860706   3.094291   3.061230
     8  H    2.509497   2.165588   1.095203   3.084740   2.536007
     9  O    4.563245   3.555573   3.064278   3.183916   3.866620
    10  O    4.305591   3.325465   2.796515   3.732257   2.951029
    11  H    4.967824   4.131166   2.800482   4.425646   4.429988
    12  H    4.346933   3.352189   3.293237   2.748545   3.604762
    13  C    5.684750   4.682205   4.165497   4.968124   4.222805
    14  H    6.058065   5.127525   4.793101   5.505788   4.466160
    15  H    6.325809   5.352342   4.553304   5.688036   5.026552
    16  H    6.052205   4.988039   4.621051   5.038862   4.567232
                    6          7          8          9         10
     6  H    0.000000
     7  Si   2.431227   0.000000
     8  H    1.751203   2.425459   0.000000
     9  O    3.278676   1.815660   3.970599   0.000000
    10  O    3.721316   1.642579   2.980401   2.865650   0.000000
    11  H    2.998743   1.485517   3.039282   2.598156   2.563295
    12  H    3.568155   2.413295   4.284336   0.958718   3.192216
    13  C    5.016393   2.693482   4.323125   3.448457   1.408423
    14  H    5.747942   3.586776   4.803982   4.428613   2.035757
    15  H    5.279056   2.964183   4.603011   3.812352   2.077348
    16  H    5.394604   3.019137   4.998138   3.147706   2.075705
                   11         12         13         14         15
    11  H    0.000000
    12  H    3.469225   0.000000
    13  C    3.159210   3.815557   0.000000
    14  H    4.119255   4.671154   1.091418   0.000000
    15  H    2.877355   4.388554   1.096704   1.775410   0.000000
    16  H    3.578733   3.394538   1.094116   1.775752   1.776168
                   16
    16  H    0.000000
 Stoichiometry    C3H10O2Si
 Framework group  C1[X(C3H10O2Si)]
 Deg. of freedom    42
 Full point group                 C1      NOp   1
 Largest Abelian subgroup         C1      NOp   1
 Largest concise Abelian subgroup C1      NOp   1
                         Standard orientation:                         
 ---------------------------------------------------------------------
 Center     Atomic      Atomic             Coordinates (Angstroms)
 Number     Number       Type             X           Y           Z
 ---------------------------------------------------------------------
      1          1           0       -3.234220   -1.163845   -0.579706
      2          6           0       -2.237620   -0.731642   -0.700694
      3          6           0       -1.624586   -0.347205    0.645219
      4          1           0       -2.346190    0.136353   -1.358045
      5          1           0       -1.619305   -1.466347   -1.222330
      6          1           0       -2.259341    0.382880    1.159479
      7         14           0        0.090355    0.366333    0.535362
      8          1           0       -1.574378   -1.222536    1.301530
      9          8           0        0.163567    1.880004   -0.464667
     10          8           0        1.030262   -0.825867   -0.091774
     11          1           0        0.628986    0.797508    1.850933
     12          1           0       -0.189300    1.839972   -1.355186
     13          6           0        2.424009   -0.716413   -0.262488
     14          1           0        2.802225   -1.672969   -0.627381
     15          1           0        2.926547   -0.482408    0.683798
     16          1           0        2.678567    0.061199   -0.988856
 ---------------------------------------------------------------------
 Rotational constants (GHZ):      3.7523608      1.8880587      1.5411050
 Standard basis: def2TZVP (5D, 7F)
 There are   252 symmetry adapted basis functions of A   symmetry.
 Integral buffers will be    131072 words long.
 Raffenetti 2 integral format.
 Two-electron integral symmetry is turned on.
   252 basis functions,   404 primitive gaussians,   282 cartesian basis functions
    29 alpha electrons       29 beta electrons
       nuclear repulsion energy       324.1063123275 Hartrees.
 NAtoms=   16 NActive=   16 NUniq=   16 SFac= 1.00D+00 NAtFMM=   60 NAOKFM=F Big=F
 One-electron integrals computed using PRISM.
   1 Symmetry operations used in ECPInt.
 ECPInt:  NShTT=    5886 NPrTT=   17754 LenC2=    5776 LenP2D=   13878.
 LDataN:  DoStor=T MaxTD1= 6 Len=  172
 NBasis=   252 RedAO= T  NBF=   252
 NBsUse=   252 1.00D-06 NBFU=   252
 Harris functional with IExCor= 1009 diagonalized for initial guess.
 ExpMin= 7.01D-02 ExpMax= 4.48D+04 ExpMxC= 1.53D+03 IAcc=2 IRadAn=         4 AccDes= 0.00D+00
 HarFok:  IExCor= 1009 AccDes= 0.00D+00 IRadAn=         4 IDoV= 1
 ScaDFX=  1.000000  1.000000  1.000000  1.000000
 FoFCou: FMM=F IPFlag=           0 FMFlag=      100000 FMFlg1=           0
         NFxFlg=           0 DoJE=T BraDBF=F KetDBF=T FulRan=T
         Omega=  0.000000  0.000000  1.000000  0.000000  0.000000 ICntrl=     500 IOpCl=  0
         NMat0=    1 NMatS0=    1 NMatT0=    0 NMatD0=    1 NMtDS0=    0 NMtDT0=    0
         I1Cent=           4 NGrid=           0.
 Petite list used in FoFCou.
 Initial guess orbital symmetries:
       Occupied  (A) (A) (A) (A) (A) (A) (A) (A) (A) (A) (A) (A)
                 (A) (A) (A) (A) (A) (A) (A) (A) (A) (A) (A) (A)
                 (A) (A) (A) (A) (A)
       Virtual   (A) (A) (A) (A) (A) (A) (A) (A) (A) (A) (A) (A)
                 (A) (A) (A) (A) (A) (A) (A) (A) (A) (A) (A) (A)
                 (A) (A) (A) (A) (A) (A) (A) (A) (A) (A) (A) (A)
                 (A) (A) (A) (A) (A) (A) (A) (A) (A) (A) (A) (A)
                 (A) (A) (A) (A) (A) (A) (A) (A) (A) (A) (A) (A)
                 (A) (A) (A) (A) (A) (A) (A) (A) (A) (A) (A) (A)
                 (A) (A) (A) (A) (A) (A) (A) (A) (A) (A) (A) (A)
                 (A) (A) (A) (A) (A) (A) (A) (A) (A) (A) (A) (A)
                 (A) (A) (A) (A) (A) (A) (A) (A) (A) (A) (A) (A)
                 (A) (A) (A) (A) (A) (A) (A) (A) (A) (A) (A) (A)
                 (A) (A) (A) (A) (A) (A) (A) (A) (A) (A) (A) (A)
                 (A) (A) (A) (A) (A) (A) (A) (A) (A) (A) (A) (A)
                 (A) (A) (A) (A) (A) (A) (A) (A) (A) (A) (A) (A)
                 (A) (A) (A) (A) (A) (A) (A) (A) (A) (A) (A) (A)
                 (A) (A) (A) (A) (A) (A) (A) (A) (A) (A) (A) (A)
                 (A) (A) (A) (A) (A) (A) (A) (A) (A) (A) (A) (A)
                 (A) (A) (A) (A) (A) (A) (A) (A) (A) (A) (A) (A)
                 (A) (A) (A) (A) (A) (A) (A) (A) (A) (A) (A) (A)
                 (A) (A) (A) (A) (A) (A) (A)
 The electronic state of the initial guess is 1-A.
 Requested convergence on RMS density matrix=1.00D-08 within 128 cycles.
 Requested convergence on MAX density matrix=1.00D-06.
 Requested convergence on             energy=1.00D-06.
 No special actions if energy rises.
 Integral accuracy reduced to 1.0D-05 until final iterations.
 Initial convergence to 1.0D-05 achieved.  Increase integral accuracy.
 SCF Done:  E(RPBE1PBE) =  -560.049364997     A.U. after   13 cycles
             Convg  =    0.5084D-08             -V/T =  2.0037

 **********************************************************************

            Population analysis using the SCF density.

 **********************************************************************

 Orbital symmetries:
       Occupied  (A) (A) (A) (A) (A) (A) (A) (A) (A) (A) (A) (A)
                 (A) (A) (A) (A) (A) (A) (A) (A) (A) (A) (A) (A)
                 (A) (A) (A) (A) (A)
       Virtual   (A) (A) (A) (A) (A) (A) (A) (A) (A) (A) (A) (A)
                 (A) (A) (A) (A) (A) (A) (A) (A) (A) (A) (A) (A)
                 (A) (A) (A) (A) (A) (A) (A) (A) (A) (A) (A) (A)
                 (A) (A) (A) (A) (A) (A) (A) (A) (A) (A) (A) (A)
                 (A) (A) (A) (A) (A) (A) (A) (A) (A) (A) (A) (A)
                 (A) (A) (A) (A) (A) (A) (A) (A) (A) (A) (A) (A)
                 (A) (A) (A) (A) (A) (A) (A) (A) (A) (A) (A) (A)
                 (A) (A) (A) (A) (A) (A) (A) (A) (A) (A) (A) (A)
                 (A) (A) (A) (A) (A) (A) (A) (A) (A) (A) (A) (A)
                 (A) (A) (A) (A) (A) (A) (A) (A) (A) (A) (A) (A)
                 (A) (A) (A) (A) (A) (A) (A) (A) (A) (A) (A) (A)
                 (A) (A) (A) (A) (A) (A) (A) (A) (A) (A) (A) (A)
                 (A) (A) (A) (A) (A) (A) (A) (A) (A) (A) (A) (A)
                 (A) (A) (A) (A) (A) (A) (A) (A) (A) (A) (A) (A)
                 (A) (A) (A) (A) (A) (A) (A) (A) (A) (A) (A) (A)
                 (A) (A) (A) (A) (A) (A) (A) (A) (A) (A) (A) (A)
                 (A) (A) (A) (A) (A) (A) (A) (A) (A) (A) (A) (A)
                 (A) (A) (A) (A) (A) (A) (A) (A) (A) (A) (A) (A)
                 (A) (A) (A) (A) (A) (A) (A)
 The electronic state is 1-A.
 Alpha  occ. eigenvalues --  -66.27219 -19.20816 -19.19123 -10.26754 -10.21905
 Alpha  occ. eigenvalues --  -10.21545  -5.34580  -3.68111  -3.68006  -3.67846
 Alpha  occ. eigenvalues --   -1.04633  -0.99136  -0.78580  -0.70917  -0.64388
 Alpha  occ. eigenvalues --   -0.55194  -0.50150  -0.47197  -0.46906  -0.46056
 Alpha  occ. eigenvalues --   -0.43828  -0.41514  -0.38145  -0.36810  -0.36207
 Alpha  occ. eigenvalues --   -0.34273  -0.31706  -0.30719  -0.30133
 Alpha virt. eigenvalues --    0.02120   0.04880   0.05641   0.07710   0.08820
 Alpha virt. eigenvalues --    0.09725   0.10266   0.10835   0.12090   0.13112
 Alpha virt. eigenvalues --    0.13473   0.14916   0.15472   0.16010   0.18957
 Alpha virt. eigenvalues --    0.20969   0.21780   0.22932   0.24283   0.24834
 Alpha virt. eigenvalues --    0.26558   0.27062   0.28618   0.29584   0.30710
 Alpha virt. eigenvalues --    0.32415   0.36550   0.39130   0.39925   0.40551
 Alpha virt. eigenvalues --    0.41751   0.42316   0.43878   0.45027   0.45398
 Alpha virt. eigenvalues --    0.45873   0.47270   0.47774   0.49415   0.49795
 Alpha virt. eigenvalues --    0.50482   0.53234   0.55300   0.56565   0.60519
 Alpha virt. eigenvalues --    0.60709   0.62568   0.64043   0.65646   0.68111
 Alpha virt. eigenvalues --    0.72854   0.73846   0.74335   0.76907   0.79958
 Alpha virt. eigenvalues --    0.81913   0.83501   0.86121   0.87560   0.91650
 Alpha virt. eigenvalues --    0.93066   0.95093   0.96230   0.98951   1.00656
 Alpha virt. eigenvalues --    1.03014   1.05271   1.06598   1.08294   1.11256
 Alpha virt. eigenvalues --    1.11912   1.12914   1.15007   1.18243   1.19664
 Alpha virt. eigenvalues --    1.23587   1.27036   1.32077   1.35878   1.40344
 Alpha virt. eigenvalues --    1.41085   1.45636   1.46504   1.50078   1.51988
 Alpha virt. eigenvalues --    1.53055   1.54134   1.54724   1.55805   1.57483
 Alpha virt. eigenvalues --    1.59261   1.61384   1.62583   1.62956   1.64871
 Alpha virt. eigenvalues --    1.67078   1.69727   1.73677   1.75989   1.78184
 Alpha virt. eigenvalues --    1.80211   1.82771   1.86324   1.89298   1.90529
 Alpha virt. eigenvalues --    1.94096   1.94876   1.98540   1.99050   2.01533
 Alpha virt. eigenvalues --    2.03334   2.06807   2.08665   2.11927   2.13342
 Alpha virt. eigenvalues --    2.16325   2.17378   2.25677   2.27321   2.29561
 Alpha virt. eigenvalues --    2.30620   2.31388   2.32740   2.34853   2.35325
 Alpha virt. eigenvalues --    2.35532   2.39596   2.42490   2.46433   2.48267
 Alpha virt. eigenvalues --    2.50555   2.50910   2.54298   2.55830   2.57942
 Alpha virt. eigenvalues --    2.59031   2.60932   2.64402   2.66573   2.70205
 Alpha virt. eigenvalues --    2.72113   2.75550   2.78985   2.80466   2.82660
 Alpha virt. eigenvalues --    2.83798   2.91979   2.92806   2.98143   2.99577
 Alpha virt. eigenvalues --    3.04219   3.08365   3.09464   3.11098   3.14486
 Alpha virt. eigenvalues --    3.19229   3.22055   3.22528   3.25957   3.29509
 Alpha virt. eigenvalues --    3.31213   3.32309   3.35673   3.39039   3.40028
 Alpha virt. eigenvalues --    3.44101   3.45424   3.45760   3.52492   3.53511
 Alpha virt. eigenvalues --    3.57639   3.59478   3.61857   3.64675   3.76288
 Alpha virt. eigenvalues --    3.80807   3.83789   3.92086   3.95304   4.02465
 Alpha virt. eigenvalues --    4.18630   4.23829   4.24500   4.33879   4.36540
 Alpha virt. eigenvalues --    4.41427   4.46487   4.52976   4.56564   4.78257
 Alpha virt. eigenvalues --    5.13054   5.17189   5.17633   5.18520   5.24752
 Alpha virt. eigenvalues --    5.28534   5.37344   5.40779   5.45423   5.51000
 Alpha virt. eigenvalues --    5.78890   5.85670   6.02876   6.21670   6.35989
 Alpha virt. eigenvalues --    6.40287   6.50273   6.54936   6.56369   6.59710
 Alpha virt. eigenvalues --    6.61196   6.76227   6.80583   6.90859   7.04491
 Alpha virt. eigenvalues --    7.12044   7.18431  11.67638  22.36750  22.40547
 Alpha virt. eigenvalues --   22.44539  43.54015  43.93266
          Condensed to atoms (all electrons):
              1          2          3          4          5          6
     1  H    0.552314   0.406634  -0.033796  -0.025105  -0.024875  -0.006893
     2  C    0.406634   4.942291   0.319181   0.399019   0.411830  -0.026589
     3  C   -0.033796   0.319181   5.006075  -0.042999  -0.038343   0.388647
     4  H   -0.025105   0.399019  -0.042999   0.575800  -0.026079  -0.004970
     5  H   -0.024875   0.411830  -0.038343  -0.026079   0.534516   0.007581
     6  H   -0.006893  -0.026589   0.388647  -0.004970   0.007581   0.573266
     7  Si   0.008203  -0.023439   0.416787  -0.003280  -0.009524  -0.030336
     8  H   -0.006578  -0.029570   0.371631   0.008776  -0.004070  -0.027236
     9  O    0.000043  -0.005018  -0.029865   0.005623  -0.000335  -0.000742
    10  O    0.000026  -0.005222  -0.030589   0.000383   0.007680   0.001331
    11  H   -0.000119   0.001531  -0.033215   0.000209   0.000384   0.001097
    12  H   -0.000053  -0.000336  -0.001538   0.001732  -0.000017   0.000036
    13  C    0.000013  -0.000190   0.001592   0.000129  -0.000001  -0.000124
    14  H   -0.000004   0.000228  -0.000395  -0.000005  -0.000164   0.000000
    15  H    0.000001  -0.000049   0.000044  -0.000002   0.000080   0.000004
    16  H    0.000000  -0.000089   0.000757  -0.000022  -0.000003   0.000014
              7          8          9         10         11         12
     1  H    0.008203  -0.006578   0.000043   0.000026  -0.000119  -0.000053
     2  C   -0.023439  -0.029570  -0.005018  -0.005222   0.001531  -0.000336
     3  C    0.416787   0.371631  -0.029865  -0.030589  -0.033215  -0.001538
     4  H   -0.003280   0.008776   0.005623   0.000383   0.000209   0.001732
     5  H   -0.009524  -0.004070  -0.000335   0.007680   0.000384  -0.000017
     6  H   -0.030336  -0.027236  -0.000742   0.001331   0.001097   0.000036
     7  Si  11.933812  -0.013083   0.409271   0.446879   0.391021  -0.024306
     8  H   -0.013083   0.575229   0.001590   0.001776   0.000832  -0.000073
     9  O    0.409271   0.001590   7.969554  -0.027193  -0.013956   0.291196
    10  O    0.446879   0.001776  -0.027193   7.827306  -0.025149  -0.000540
    11  H    0.391021   0.000832  -0.013956  -0.025149   0.712516   0.003026
    12  H   -0.024306  -0.000073   0.291196  -0.000540   0.003026   0.417898
    13  C   -0.052190   0.000118  -0.007112   0.260567   0.002466   0.000466
    14  H    0.008326   0.000000   0.000137  -0.040655  -0.000213   0.000016
    15  H   -0.017596  -0.000025  -0.000366  -0.042180   0.009431   0.000012
    16  H   -0.003185  -0.000018   0.007145  -0.042550  -0.001778   0.000116
             13         14         15         16
     1  H    0.000013  -0.000004   0.000001   0.000000
     2  C   -0.000190   0.000228  -0.000049  -0.000089
     3  C    0.001592  -0.000395   0.000044   0.000757
     4  H    0.000129  -0.000005  -0.000002  -0.000022
     5  H   -0.000001  -0.000164   0.000080  -0.000003
     6  H   -0.000124   0.000000   0.000004   0.000014
     7  Si  -0.052190   0.008326  -0.017596  -0.003185
     8  H    0.000118   0.000000  -0.000025  -0.000018
     9  O   -0.007112   0.000137  -0.000366   0.007145
    10  O    0.260567  -0.040655  -0.042180  -0.042550
    11  H    0.002466  -0.000213   0.009431  -0.001778
    12  H    0.000466   0.000016   0.000012   0.000116
    13  C    4.777024   0.400342   0.417789   0.412064
    14  H    0.400342   0.565402  -0.030368  -0.032326
    15  H    0.417789  -0.030368   0.591219  -0.045939
    16  H    0.412064  -0.032326  -0.045939   0.579305
 Mulliken atomic charges:
              1
     1  H    0.130189
     2  C   -0.390213
     3  C   -0.293974
     4  H    0.110790
     5  H    0.141339
     6  H    0.124914
     7  Si   0.562638
     8  H    0.120700
     9  O   -0.599972
    10  O   -0.331871
    11  H   -0.048082
    12  H    0.312365
    13  C   -0.212954
    14  H    0.129679
    15  H    0.117945
    16  H    0.126507
 Sum of Mulliken atomic charges =   0.00000
 Mulliken charges with hydrogens summed into heavy atoms:
              1
     2  C   -0.007894
     3  C   -0.048360
     7  Si   0.514556
     9  O   -0.287608
    10  O   -0.331871
    13  C    0.161177
 Sum of Mulliken charges with hydrogens summed into heavy atoms =   0.00000
 Electronic spatial extent (au):  <R**2>=            886.8467
 Charge=              0.0000 electrons
 Dipole moment (field-independent basis, Debye):
    X=             -0.3016    Y=             -1.1262    Z=             -0.5399  Tot=              1.2848
 Quadrupole moment (field-independent basis, Debye-Ang):
   XX=            -40.7078   YY=            -50.3697   ZZ=            -42.7954
   XY=             -1.8056   XZ=             -0.2522   YZ=             -1.8344
 Traceless Quadrupole moment (field-independent basis, Debye-Ang):
   XX=              3.9165   YY=             -5.7454   ZZ=              1.8289
   XY=             -1.8056   XZ=             -0.2522   YZ=             -1.8344
 Octapole moment (field-independent basis, Debye-Ang**2):
  XXX=             14.3108  YYY=             -9.4520  ZZZ=             -9.1645  XYY=             -1.5283
  XXY=             -2.7408  XXZ=             -1.3928  XZZ=              0.7887  YZZ=              5.4646
  YYZ=             -4.3316  XYZ=              2.0573
 Hexadecapole moment (field-independent basis, Debye-Ang**3):
 XXXX=           -699.5353 YYYY=           -317.6111 ZZZZ=           -173.6213 XXXY=            -12.3999
 XXXZ=             -7.6272 YYYX=            -13.0149 YYYZ=             -9.7047 ZZZX=             -3.2348
 ZZZY=            -17.5095 XXYY=           -165.6862 XXZZ=           -150.5844 YYZZ=            -66.6042
 XXYZ=              0.0613 YYXZ=             -1.1230 ZZXY=             -5.0029
 N-N= 3.241063123275D+02 E-N=-1.971891481082D+03  KE= 5.579931850641D+02
 1\1\GINC-TARSUS2\SP\RPBE1PBE\def2TZVP\C3H10O2Si1\RENATO\10-Aug-2018\0\
 \#SP PBE1PBE/Def2TZVP geom=connectivity\\Structure: 257\\0,1\H,0,0.,0.
 ,0.\C,0,1.093,0.,0.\C,0,1.655,1.421,0.\H,0,1.41,-0.56,-0.885\H,0,1.424
 ,-0.557,0.88\H,0,1.308,1.969,-0.883\Si,0,3.513,1.515,0.035\H,0,1.282,1
 .975,0.868\O,0,4.289,0.702,-1.391\O,0,3.968,0.824,1.454\H,0,4.029,2.90
 6,-0.04\H,0,4.05,-0.21,-1.565\C,0,5.301,0.766,1.905\H,0,5.308,0.322,2.
 902\H,0,5.747,1.766,1.967\H,0,5.921,0.153,1.244\\Version=EM64L-G09RevC
 .01\State=1-A\HF=-560.049365\RMSD=5.084e-09\Dipole=-0.2598893,-0.26945
 1,0.3396565\Quadrupole=0.9588206,0.9375885,-1.8964091,-1.0164084,3.319
 4451,1.798586\PG=C01 [X(C3H10O2Si1)]\\@


 When cryptography is outlawed, bayl bhgynjf jvyy unir cevinpl.
 Job cpu time:  0 days  0 hours 13 minutes 41.3 seconds.
 File lengths (MBytes):  RWF=     40 Int=      0 D2E=      0 Chk=      3 Scr=      1
 Normal termination of Gaussian 09 at Fri Aug 10 00:36:18 2018.
