 Entering Gaussian System, Link 0=g09
 Initial command:
 /usr/local/gaussian09/g09/l1.exe /scratch/renato/Gau-11619.inp -scrdir=/scratch/renato/
 Entering Link 1 = /usr/local/gaussian09/g09/l1.exe PID=     11621.
  
 Copyright (c) 1988,1990,1992,1993,1995,1998,2003,2009,2011,
            Gaussian, Inc.  All Rights Reserved.
  
 This is part of the Gaussian(R) 09 program.  It is based on
 the Gaussian(R) 03 system (copyright 2003, Gaussian, Inc.),
 the Gaussian(R) 98 system (copyright 1998, Gaussian, Inc.),
 the Gaussian(R) 94 system (copyright 1995, Gaussian, Inc.),
 the Gaussian 92(TM) system (copyright 1992, Gaussian, Inc.),
 the Gaussian 90(TM) system (copyright 1990, Gaussian, Inc.),
 the Gaussian 88(TM) system (copyright 1988, Gaussian, Inc.),
 the Gaussian 86(TM) system (copyright 1986, Carnegie Mellon
 University), and the Gaussian 82(TM) system (copyright 1983,
 Carnegie Mellon University). Gaussian is a federally registered
 trademark of Gaussian, Inc.
  
 This software contains proprietary and confidential information,
 including trade secrets, belonging to Gaussian, Inc.
  
 This software is provided under written license and may be
 used, copied, transmitted, or stored only in accord with that
 written license.
  
 The following legend is applicable only to US Government
 contracts under FAR:
  
                    RESTRICTED RIGHTS LEGEND
  
 Use, reproduction and disclosure by the US Government is
 subject to restrictions as set forth in subparagraphs (a)
 and (c) of the Commercial Computer Software - Restricted
 Rights clause in FAR 52.227-19.
  
 Gaussian, Inc.
 340 Quinnipiac St., Bldg. 40, Wallingford CT 06492
  
  
 ---------------------------------------------------------------
 Warning -- This program may not be used in any manner that
 competes with the business of Gaussian, Inc. or will provide
 assistance to any competitor of Gaussian, Inc.  The licensee
 of this program is prohibited from giving any competitor of
 Gaussian, Inc. access to this program.  By using this program,
 the user acknowledges that Gaussian, Inc. is engaged in the
 business of creating and licensing software in the field of
 computational chemistry and represents and warrants to the
 licensee that it is not a competitor of Gaussian, Inc. and that
 it will not use this program in any manner prohibited above.
 ---------------------------------------------------------------
  

 Cite this work as:
 Gaussian 09, Revision C.01,
 M. J. Frisch, G. W. Trucks, H. B. Schlegel, G. E. Scuseria, 
 M. A. Robb, J. R. Cheeseman, G. Scalmani, V. Barone, B. Mennucci, 
 G. A. Petersson, H. Nakatsuji, M. Caricato, X. Li, H. P. Hratchian, 
 A. F. Izmaylov, J. Bloino, G. Zheng, J. L. Sonnenberg, M. Hada, 
 M. Ehara, K. Toyota, R. Fukuda, J. Hasegawa, M. Ishida, T. Nakajima, 
 Y. Honda, O. Kitao, H. Nakai, T. Vreven, J. A. Montgomery, Jr., 
 J. E. Peralta, F. Ogliaro, M. Bearpark, J. J. Heyd, E. Brothers, 
 K. N. Kudin, V. N. Staroverov, T. Keith, R. Kobayashi, J. Normand, 
 K. Raghavachari, A. Rendell, J. C. Burant, S. S. Iyengar, J. Tomasi, 
 M. Cossi, N. Rega, J. M. Millam, M. Klene, J. E. Knox, J. B. Cross, 
 V. Bakken, C. Adamo, J. Jaramillo, R. Gomperts, R. E. Stratmann, 
 O. Yazyev, A. J. Austin, R. Cammi, C. Pomelli, J. W. Ochterski, 
 R. L. Martin, K. Morokuma, V. G. Zakrzewski, G. A. Voth, 
 P. Salvador, J. J. Dannenberg, S. Dapprich, A. D. Daniels, 
 O. Farkas, J. B. Foresman, J. V. Ortiz, J. Cioslowski, 
 and D. J. Fox, Gaussian, Inc., Wallingford CT, 2010.
 
 ******************************************
 Gaussian 09:  EM64L-G09RevC.01 23-Sep-2011
                10-Aug-2018 
 ******************************************
 %nproc=2
 Will use up to    2 processors via shared memory.
 %mem=256MB
 %RWF=bm3.rwf
 %chk=bm3295
 %NoSave
 --------------------------------------
 #SP PBE1PBE/Def2TZVP geom=connectivity
 --------------------------------------
 1/38=1,57=2/1;
 2/12=2,17=6,18=5,40=1/2;
 3/5=44,7=101,11=2,16=1,25=1,30=1,74=-13/1,2,3;
 4//1;
 5/5=2,38=5/2;
 6/7=2,8=2,9=2,10=2,28=1/1;
 99/5=1,9=1/99;
 --------------
 Structure: 295
 --------------
 Charge =  0 Multiplicity = 1
 Symbolic Z-Matrix:
 H                     0.        0.        0. 
 C                     1.093     0.        0. 
 C                     1.655     1.421     0. 
 H                     1.41     -0.56     -0.885 
 H                     1.424    -0.557     0.88 
 H                     1.308     1.969    -0.883 
 Si                    3.513     1.515     0.035 
 H                     1.282     1.975     0.868 
 O                     4.322     0.668    -1.45 
 O                     3.968     0.824     1.454 
 H                     4.029     2.906    -0.04 
 H                     4.083    -0.244    -1.624 
 C                     5.301     0.766     1.905 
 H                     5.308     0.322     2.902 
 H                     5.747     1.766     1.967 
 H                     5.921     0.153     1.244 
 
                          Input orientation:                          
 ---------------------------------------------------------------------
 Center     Atomic      Atomic             Coordinates (Angstroms)
 Number     Number       Type             X           Y           Z
 ---------------------------------------------------------------------
      1          1           0        0.000000    0.000000    0.000000
      2          6           0        1.093000    0.000000    0.000000
      3          6           0        1.655000    1.421000    0.000000
      4          1           0        1.410000   -0.560000   -0.885000
      5          1           0        1.424000   -0.557000    0.880000
      6          1           0        1.308000    1.969000   -0.883000
      7         14           0        3.513000    1.515000    0.035000
      8          1           0        1.282000    1.975000    0.868000
      9          8           0        4.322000    0.668000   -1.450000
     10          8           0        3.968000    0.824000    1.454000
     11          1           0        4.029000    2.906000   -0.040000
     12          1           0        4.083000   -0.244000   -1.624000
     13          6           0        5.301000    0.766000    1.905000
     14          1           0        5.308000    0.322000    2.902000
     15          1           0        5.747000    1.766000    1.967000
     16          1           0        5.921000    0.153000    1.244000
 ---------------------------------------------------------------------
                    Distance matrix (angstroms):
                    1          2          3          4          5
     1  H    0.000000
     2  C    1.093000   0.000000
     3  C    2.181345   1.528098   0.000000
     4  H    1.756395   1.094218   2.183486   0.000000
     5  H    1.764207   1.092799   2.177210   1.765058   0.000000
     6  H    2.523393   2.168611   1.095629   2.531057   3.082580
     7  Si   3.825914   2.855320   1.860706   3.094291   3.061230
     8  H    2.509497   2.165588   1.095203   3.084740   2.536007
     9  O    4.607430   3.602106   3.127683   3.210444   3.915090
    10  O    4.305591   3.325465   2.796515   3.732257   2.951029
    11  H    4.967824   4.131166   2.800482   4.425646   4.429988
    12  H    4.400886   3.411306   3.362259   2.791219   3.665824
    13  C    5.684750   4.682205   4.165497   4.968124   4.222805
    14  H    6.058065   5.127525   4.793101   5.505788   4.466160
    15  H    6.325809   5.352342   4.553304   5.688036   5.026552
    16  H    6.052205   4.988039   4.621051   5.038862   4.567232
                    6          7          8          9         10
     6  H    0.000000
     7  Si   2.431227   0.000000
     8  H    1.751203   2.425459   0.000000
     9  O    3.331409   1.891326   4.040170   0.000000
    10  O    3.721316   1.642579   2.980401   2.929653   0.000000
    11  H    2.998743   1.485517   3.039282   2.661314   2.563295
    12  H    3.625890   2.484202   4.356561   0.958718   3.260051
    13  C    5.016393   2.693482   4.323125   3.496294   1.408423
    14  H    5.747942   3.586776   4.803982   4.475692   2.035757
    15  H    5.279056   2.964183   4.603011   3.861621   2.077348
    16  H    5.394604   3.019137   4.998138   3.174848   2.075705
                   11         12         13         14         15
    11  H    0.000000
    12  H    3.526255   0.000000
    13  C    3.159210   3.867488   0.000000
    14  H    4.119255   4.722887   1.091418   0.000000
    15  H    2.877355   4.438950   1.096704   1.775410   0.000000
    16  H    3.578733   3.429472   1.094116   1.775752   1.776168
                   16
    16  H    0.000000
 Stoichiometry    C3H10O2Si
 Framework group  C1[X(C3H10O2Si)]
 Deg. of freedom    42
 Full point group                 C1      NOp   1
 Largest Abelian subgroup         C1      NOp   1
 Largest concise Abelian subgroup C1      NOp   1
                         Standard orientation:                         
 ---------------------------------------------------------------------
 Center     Atomic      Atomic             Coordinates (Angstroms)
 Number     Number       Type             X           Y           Z
 ---------------------------------------------------------------------
      1          1           0       -3.236400   -1.148299   -0.614069
      2          6           0       -2.239014   -0.713943   -0.719931
      3          6           0       -1.626160   -0.375933    0.638466
      4          1           0       -2.345752    0.175811   -1.347831
      5          1           0       -1.621597   -1.431755   -1.265599
      6          1           0       -2.260019    0.337537    1.176598
      7         14           0        0.090023    0.338024    0.553568
      8          1           0       -1.577795   -1.272886    1.265048
      9          8           0        0.170288    1.948592   -0.434735
     10          8           0        1.028339   -0.834019   -0.112723
     11          1           0        0.628570    0.723890    1.883168
     12          1           0       -0.182106    1.939068   -1.326290
     13          6           0        2.422368   -0.721225   -0.278900
     14          1           0        2.799224   -1.665623   -0.675493
     15          1           0        2.924719   -0.519960    0.674984
     16          1           0        2.678649    0.079907   -0.978613
 ---------------------------------------------------------------------
 Rotational constants (GHZ):      3.6232918      1.8832586      1.5218751
 Standard basis: def2TZVP (5D, 7F)
 There are   252 symmetry adapted basis functions of A   symmetry.
 Integral buffers will be    131072 words long.
 Raffenetti 2 integral format.
 Two-electron integral symmetry is turned on.
   252 basis functions,   404 primitive gaussians,   282 cartesian basis functions
    29 alpha electrons       29 beta electrons
       nuclear repulsion energy       321.8539029008 Hartrees.
 NAtoms=   16 NActive=   16 NUniq=   16 SFac= 1.00D+00 NAtFMM=   60 NAOKFM=F Big=F
 One-electron integrals computed using PRISM.
   1 Symmetry operations used in ECPInt.
 ECPInt:  NShTT=    5886 NPrTT=   17754 LenC2=    5772 LenP2D=   13851.
 LDataN:  DoStor=T MaxTD1= 6 Len=  172
 NBasis=   252 RedAO= T  NBF=   252
 NBsUse=   252 1.00D-06 NBFU=   252
 Harris functional with IExCor= 1009 diagonalized for initial guess.
 ExpMin= 7.01D-02 ExpMax= 4.48D+04 ExpMxC= 1.53D+03 IAcc=2 IRadAn=         4 AccDes= 0.00D+00
 HarFok:  IExCor= 1009 AccDes= 0.00D+00 IRadAn=         4 IDoV= 1
 ScaDFX=  1.000000  1.000000  1.000000  1.000000
 FoFCou: FMM=F IPFlag=           0 FMFlag=      100000 FMFlg1=           0
         NFxFlg=           0 DoJE=T BraDBF=F KetDBF=T FulRan=T
         Omega=  0.000000  0.000000  1.000000  0.000000  0.000000 ICntrl=     500 IOpCl=  0
         NMat0=    1 NMatS0=    1 NMatT0=    0 NMatD0=    1 NMtDS0=    0 NMtDT0=    0
         I1Cent=           4 NGrid=           0.
 Petite list used in FoFCou.
 Initial guess orbital symmetries:
       Occupied  (A) (A) (A) (A) (A) (A) (A) (A) (A) (A) (A) (A)
                 (A) (A) (A) (A) (A) (A) (A) (A) (A) (A) (A) (A)
                 (A) (A) (A) (A) (A)
       Virtual   (A) (A) (A) (A) (A) (A) (A) (A) (A) (A) (A) (A)
                 (A) (A) (A) (A) (A) (A) (A) (A) (A) (A) (A) (A)
                 (A) (A) (A) (A) (A) (A) (A) (A) (A) (A) (A) (A)
                 (A) (A) (A) (A) (A) (A) (A) (A) (A) (A) (A) (A)
                 (A) (A) (A) (A) (A) (A) (A) (A) (A) (A) (A) (A)
                 (A) (A) (A) (A) (A) (A) (A) (A) (A) (A) (A) (A)
                 (A) (A) (A) (A) (A) (A) (A) (A) (A) (A) (A) (A)
                 (A) (A) (A) (A) (A) (A) (A) (A) (A) (A) (A) (A)
                 (A) (A) (A) (A) (A) (A) (A) (A) (A) (A) (A) (A)
                 (A) (A) (A) (A) (A) (A) (A) (A) (A) (A) (A) (A)
                 (A) (A) (A) (A) (A) (A) (A) (A) (A) (A) (A) (A)
                 (A) (A) (A) (A) (A) (A) (A) (A) (A) (A) (A) (A)
                 (A) (A) (A) (A) (A) (A) (A) (A) (A) (A) (A) (A)
                 (A) (A) (A) (A) (A) (A) (A) (A) (A) (A) (A) (A)
                 (A) (A) (A) (A) (A) (A) (A) (A) (A) (A) (A) (A)
                 (A) (A) (A) (A) (A) (A) (A) (A) (A) (A) (A) (A)
                 (A) (A) (A) (A) (A) (A) (A) (A) (A) (A) (A) (A)
                 (A) (A) (A) (A) (A) (A) (A) (A) (A) (A) (A) (A)
                 (A) (A) (A) (A) (A) (A) (A)
 The electronic state of the initial guess is 1-A.
 Requested convergence on RMS density matrix=1.00D-08 within 128 cycles.
 Requested convergence on MAX density matrix=1.00D-06.
 Requested convergence on             energy=1.00D-06.
 No special actions if energy rises.
 Integral accuracy reduced to 1.0D-05 until final iterations.
 Initial convergence to 1.0D-05 achieved.  Increase integral accuracy.
 SCF Done:  E(RPBE1PBE) =  -560.039023143     A.U. after   14 cycles
             Convg  =    0.2556D-08             -V/T =  2.0038

 **********************************************************************

            Population analysis using the SCF density.

 **********************************************************************

 Orbital symmetries:
       Occupied  (A) (A) (A) (A) (A) (A) (A) (A) (A) (A) (A) (A)
                 (A) (A) (A) (A) (A) (A) (A) (A) (A) (A) (A) (A)
                 (A) (A) (A) (A) (A)
       Virtual   (A) (A) (A) (A) (A) (A) (A) (A) (A) (A) (A) (A)
                 (A) (A) (A) (A) (A) (A) (A) (A) (A) (A) (A) (A)
                 (A) (A) (A) (A) (A) (A) (A) (A) (A) (A) (A) (A)
                 (A) (A) (A) (A) (A) (A) (A) (A) (A) (A) (A) (A)
                 (A) (A) (A) (A) (A) (A) (A) (A) (A) (A) (A) (A)
                 (A) (A) (A) (A) (A) (A) (A) (A) (A) (A) (A) (A)
                 (A) (A) (A) (A) (A) (A) (A) (A) (A) (A) (A) (A)
                 (A) (A) (A) (A) (A) (A) (A) (A) (A) (A) (A) (A)
                 (A) (A) (A) (A) (A) (A) (A) (A) (A) (A) (A) (A)
                 (A) (A) (A) (A) (A) (A) (A) (A) (A) (A) (A) (A)
                 (A) (A) (A) (A) (A) (A) (A) (A) (A) (A) (A) (A)
                 (A) (A) (A) (A) (A) (A) (A) (A) (A) (A) (A) (A)
                 (A) (A) (A) (A) (A) (A) (A) (A) (A) (A) (A) (A)
                 (A) (A) (A) (A) (A) (A) (A) (A) (A) (A) (A) (A)
                 (A) (A) (A) (A) (A) (A) (A) (A) (A) (A) (A) (A)
                 (A) (A) (A) (A) (A) (A) (A) (A) (A) (A) (A) (A)
                 (A) (A) (A) (A) (A) (A) (A) (A) (A) (A) (A) (A)
                 (A) (A) (A) (A) (A) (A) (A) (A) (A) (A) (A) (A)
                 (A) (A) (A) (A) (A) (A) (A)
 The electronic state is 1-A.
 Alpha  occ. eigenvalues --  -66.27915 -19.21170 -19.18561 -10.26895 -10.21991
 Alpha  occ. eigenvalues --  -10.21843  -5.35206  -3.68745  -3.68630  -3.68460
 Alpha  occ. eigenvalues --   -1.04887  -0.97805  -0.78753  -0.71099  -0.64550
 Alpha  occ. eigenvalues --   -0.54973  -0.49469  -0.47352  -0.47036  -0.46097
 Alpha  occ. eigenvalues --   -0.43946  -0.41733  -0.38275  -0.36799  -0.35613
 Alpha  occ. eigenvalues --   -0.34068  -0.31486  -0.30712  -0.30016
 Alpha virt. eigenvalues --    0.01836   0.04521   0.05427   0.07567   0.08707
 Alpha virt. eigenvalues --    0.09319   0.10035   0.10624   0.11980   0.12831
 Alpha virt. eigenvalues --    0.13379   0.14663   0.15265   0.15851   0.18811
 Alpha virt. eigenvalues --    0.20757   0.21633   0.22660   0.24110   0.24735
 Alpha virt. eigenvalues --    0.26337   0.26596   0.28614   0.29616   0.30521
 Alpha virt. eigenvalues --    0.32310   0.36478   0.38951   0.39885   0.40597
 Alpha virt. eigenvalues --    0.41691   0.42248   0.43765   0.44825   0.45412
 Alpha virt. eigenvalues --    0.45712   0.47182   0.47728   0.48972   0.49617
 Alpha virt. eigenvalues --    0.50333   0.53179   0.55168   0.56505   0.60653
 Alpha virt. eigenvalues --    0.60677   0.62365   0.63417   0.65466   0.68137
 Alpha virt. eigenvalues --    0.72251   0.73535   0.73999   0.76513   0.79593
 Alpha virt. eigenvalues --    0.81460   0.83352   0.85992   0.87404   0.91546
 Alpha virt. eigenvalues --    0.93131   0.94785   0.95999   0.98799   1.00687
 Alpha virt. eigenvalues --    1.02380   1.04606   1.06437   1.07936   1.11081
 Alpha virt. eigenvalues --    1.11660   1.13070   1.14522   1.18143   1.18791
 Alpha virt. eigenvalues --    1.23068   1.26815   1.32069   1.35621   1.39967
 Alpha virt. eigenvalues --    1.40613   1.44771   1.46445   1.50283   1.51725
 Alpha virt. eigenvalues --    1.53104   1.53987   1.54400   1.55409   1.57329
 Alpha virt. eigenvalues --    1.58934   1.60437   1.62193   1.62913   1.63924
 Alpha virt. eigenvalues --    1.65921   1.69149   1.73210   1.75338   1.77697
 Alpha virt. eigenvalues --    1.79995   1.82564   1.86070   1.89390   1.90899
 Alpha virt. eigenvalues --    1.93024   1.94595   1.97667   1.98705   2.00615
 Alpha virt. eigenvalues --    2.02079   2.06200   2.07922   2.11855   2.12791
 Alpha virt. eigenvalues --    2.15893   2.16970   2.25236   2.26554   2.29143
 Alpha virt. eigenvalues --    2.29746   2.30805   2.32556   2.34688   2.35074
 Alpha virt. eigenvalues --    2.35380   2.39180   2.41948   2.46004   2.47827
 Alpha virt. eigenvalues --    2.50217   2.50634   2.54095   2.55692   2.57782
 Alpha virt. eigenvalues --    2.58819   2.60749   2.64036   2.66457   2.69858
 Alpha virt. eigenvalues --    2.71792   2.74848   2.77755   2.79616   2.81987
 Alpha virt. eigenvalues --    2.83121   2.91380   2.92155   2.96848   2.99388
 Alpha virt. eigenvalues --    3.03452   3.07977   3.09258   3.10887   3.14226
 Alpha virt. eigenvalues --    3.18520   3.21855   3.22269   3.25657   3.29328
 Alpha virt. eigenvalues --    3.30821   3.32136   3.34656   3.37993   3.39824
 Alpha virt. eigenvalues --    3.43914   3.45122   3.45565   3.52047   3.53350
 Alpha virt. eigenvalues --    3.57142   3.58746   3.61653   3.64509   3.76077
 Alpha virt. eigenvalues --    3.80628   3.82926   3.91852   3.95065   4.02148
 Alpha virt. eigenvalues --    4.18420   4.23666   4.24224   4.33711   4.36365
 Alpha virt. eigenvalues --    4.41298   4.46283   4.52765   4.56264   4.78064
 Alpha virt. eigenvalues --    5.13160   5.17748   5.18043   5.18707   5.24210
 Alpha virt. eigenvalues --    5.27870   5.36905   5.40271   5.45662   5.51108
 Alpha virt. eigenvalues --    5.78453   5.85231   6.02540   6.21879   6.32468
 Alpha virt. eigenvalues --    6.39809   6.49309   6.53393   6.54474   6.58987
 Alpha virt. eigenvalues --    6.59744   6.75806   6.79572   6.85680   7.03988
 Alpha virt. eigenvalues --    7.10513   7.17310  11.57583  22.36595  22.40351
 Alpha virt. eigenvalues --   22.44224  43.51166  43.92745
          Condensed to atoms (all electrons):
              1          2          3          4          5          6
     1  H    0.552740   0.405828  -0.033878  -0.024955  -0.024956  -0.006895
     2  C    0.405828   4.944347   0.320803   0.397894   0.411336  -0.025527
     3  C   -0.033878   0.320803   4.996223  -0.042248  -0.037812   0.389154
     4  H   -0.024955   0.397894  -0.042248   0.571551  -0.025415  -0.004970
     5  H   -0.024956   0.411336  -0.037812  -0.025415   0.534808   0.007508
     6  H   -0.006895  -0.025527   0.389154  -0.004970   0.007508   0.571007
     7  Si   0.008395  -0.025464   0.414241  -0.002149  -0.009964  -0.030869
     8  H   -0.006456  -0.030172   0.372035   0.008731  -0.004068  -0.027526
     9  O    0.000056  -0.005754  -0.026418   0.006024  -0.000310  -0.000681
    10  O    0.000030  -0.005276  -0.030041   0.000353   0.007709   0.001350
    11  H   -0.000120   0.001441  -0.032573   0.000209   0.000373   0.000996
    12  H   -0.000042  -0.000567  -0.001304   0.001626  -0.000030   0.000021
    13  C    0.000014  -0.000251   0.001460   0.000146   0.000028  -0.000123
    14  H   -0.000004   0.000231  -0.000389  -0.000006  -0.000165   0.000000
    15  H    0.000001  -0.000052   0.000071  -0.000002   0.000079   0.000003
    16  H    0.000000  -0.000069   0.000730  -0.000026  -0.000010   0.000015
              7          8          9         10         11         12
     1  H    0.008395  -0.006456   0.000056   0.000030  -0.000120  -0.000042
     2  C   -0.025464  -0.030172  -0.005754  -0.005276   0.001441  -0.000567
     3  C    0.414241   0.372035  -0.026418  -0.030041  -0.032573  -0.001304
     4  H   -0.002149   0.008731   0.006024   0.000353   0.000209   0.001626
     5  H   -0.009964  -0.004068  -0.000310   0.007709   0.000373  -0.000030
     6  H   -0.030869  -0.027526  -0.000681   0.001350   0.000996   0.000021
     7  Si  11.956035  -0.012574   0.386078   0.446021   0.390536  -0.023200
     8  H   -0.012574   0.574014   0.001466   0.001712   0.000857  -0.000079
     9  O    0.386078   0.001466   8.013899  -0.023862  -0.012919   0.287456
    10  O    0.446021   0.001712  -0.023862   7.820361  -0.024604  -0.000391
    11  H    0.390536   0.000857  -0.012919  -0.024604   0.705230   0.002622
    12  H   -0.023200  -0.000079   0.287456  -0.000391   0.002622   0.423488
    13  C   -0.053263   0.000134  -0.007114   0.259858   0.002472   0.000398
    14  H    0.008553   0.000001   0.000151  -0.040470  -0.000207   0.000014
    15  H   -0.017492  -0.000026  -0.000333  -0.041948   0.009130   0.000021
    16  H   -0.002620  -0.000018   0.007324  -0.041966  -0.001687   0.000052
             13         14         15         16
     1  H    0.000014  -0.000004   0.000001   0.000000
     2  C   -0.000251   0.000231  -0.000052  -0.000069
     3  C    0.001460  -0.000389   0.000071   0.000730
     4  H    0.000146  -0.000006  -0.000002  -0.000026
     5  H    0.000028  -0.000165   0.000079  -0.000010
     6  H   -0.000123   0.000000   0.000003   0.000015
     7  Si  -0.053263   0.008553  -0.017492  -0.002620
     8  H    0.000134   0.000001  -0.000026  -0.000018
     9  O   -0.007114   0.000151  -0.000333   0.007324
    10  O    0.259858  -0.040470  -0.041948  -0.041966
    11  H    0.002472  -0.000207   0.009130  -0.001687
    12  H    0.000398   0.000014   0.000021   0.000052
    13  C    4.781157   0.399446   0.417597   0.411876
    14  H    0.399446   0.564744  -0.030338  -0.031704
    15  H    0.417597  -0.030338   0.590305  -0.045200
    16  H    0.411876  -0.031704  -0.045200   0.573868
 Mulliken atomic charges:
              1
     1  H    0.130243
     2  C   -0.388749
     3  C   -0.290055
     4  H    0.113238
     5  H    0.140890
     6  H    0.126538
     7  Si   0.567736
     8  H    0.121969
     9  O   -0.625063
    10  O   -0.328834
    11  H   -0.041755
    12  H    0.309915
    13  C   -0.213835
    14  H    0.130142
    15  H    0.118185
    16  H    0.129434
 Sum of Mulliken atomic charges =   0.00000
 Mulliken charges with hydrogens summed into heavy atoms:
              1
     2  C   -0.004378
     3  C   -0.041548
     7  Si   0.525981
     9  O   -0.315148
    10  O   -0.328834
    13  C    0.163926
 Sum of Mulliken charges with hydrogens summed into heavy atoms =   0.00000
 Electronic spatial extent (au):  <R**2>=            896.3511
 Charge=              0.0000 electrons
 Dipole moment (field-independent basis, Debye):
    X=             -0.3132    Y=             -1.3973    Z=             -0.4058  Tot=              1.4883
 Quadrupole moment (field-independent basis, Debye-Ang):
   XX=            -40.4969   YY=            -50.9067   ZZ=            -42.7584
   XY=             -1.8875   XZ=             -0.2780   YZ=             -1.8961
 Traceless Quadrupole moment (field-independent basis, Debye-Ang):
   XX=              4.2238   YY=             -6.1860   ZZ=              1.9623
   XY=             -1.8875   XZ=             -0.2780   YZ=             -1.8961
 Octapole moment (field-independent basis, Debye-Ang**2):
  XXX=             14.2551  YYY=            -10.9758  ZZZ=             -8.4828  XYY=             -1.8626
  XXY=             -3.0707  XXZ=             -1.4483  XZZ=              0.8682  YZZ=              5.5699
  YYZ=             -4.8207  XYZ=              2.1320
 Hexadecapole moment (field-independent basis, Debye-Ang**3):
 XXXX=           -696.9064 YYYY=           -330.7806 ZZZZ=           -176.1709 XXXY=            -12.4333
 XXXZ=             -8.0846 YYYX=            -13.6157 YYYZ=            -11.3376 ZZZX=             -3.4548
 ZZZY=            -16.4485 XXYY=           -167.4238 XXZZ=           -150.2892 YYZZ=            -67.4210
 XXYZ=              0.4375 YYXZ=             -0.9949 ZZXY=             -5.0046
 N-N= 3.218539029008D+02 E-N=-1.967273634559D+03  KE= 5.579233226634D+02
 1\1\GINC-TARSUS2\SP\RPBE1PBE\def2TZVP\C3H10O2Si1\RENATO\10-Aug-2018\0\
 \#SP PBE1PBE/Def2TZVP geom=connectivity\\Structure: 295\\0,1\H,0,0.,0.
 ,0.\C,0,1.093,0.,0.\C,0,1.655,1.421,0.\H,0,1.41,-0.56,-0.885\H,0,1.424
 ,-0.557,0.88\H,0,1.308,1.969,-0.883\Si,0,3.513,1.515,0.035\H,0,1.282,1
 .975,0.868\O,0,4.322,0.668,-1.45\O,0,3.968,0.824,1.454\H,0,4.029,2.906
 ,-0.04\H,0,4.083,-0.244,-1.624\C,0,5.301,0.766,1.905\H,0,5.308,0.322,2
 .902\H,0,5.747,1.766,1.967\H,0,5.921,0.153,1.244\\Version=EM64L-G09Rev
 C.01\State=1-A\HF=-560.0390231\RMSD=2.556e-09\Dipole=-0.3154303,-0.211
 7653,0.4455775\Quadrupole=1.0294968,1.1566854,-2.1861822,-0.9609574,3.
 6137532,1.7317669\PG=C01 [X(C3H10O2Si1)]\\@


 EVANS BOLDLY PUT 50 ATM. OF ETHYLENE IN A CELL WITH 25 ATM. OF OXYGEN.
 THE APPARATUS SUBSEQUENTLY BLEW UP, BUT LUCKILY NOT BEFORE HE
 OBTAINED THE SPECTRA SHOWN IN FIGURE 8.
 A.J.MERER AND R.S.MULLIKEN, CHEM.REV. 69, 645 (1969)
 Job cpu time:  0 days  0 hours 13 minutes 59.1 seconds.
 File lengths (MBytes):  RWF=     40 Int=      0 D2E=      0 Chk=      3 Scr=      1
 Normal termination of Gaussian 09 at Fri Aug 10 04:56:00 2018.
