 Entering Gaussian System, Link 0=g09
 Initial command:
 /usr/local/gaussian09/g09/l1.exe /scratch/renato/Gau-7893.inp -scrdir=/scratch/renato/
 Entering Link 1 = /usr/local/gaussian09/g09/l1.exe PID=      7895.
  
 Copyright (c) 1988,1990,1992,1993,1995,1998,2003,2009,2011,
            Gaussian, Inc.  All Rights Reserved.
  
 This is part of the Gaussian(R) 09 program.  It is based on
 the Gaussian(R) 03 system (copyright 2003, Gaussian, Inc.),
 the Gaussian(R) 98 system (copyright 1998, Gaussian, Inc.),
 the Gaussian(R) 94 system (copyright 1995, Gaussian, Inc.),
 the Gaussian 92(TM) system (copyright 1992, Gaussian, Inc.),
 the Gaussian 90(TM) system (copyright 1990, Gaussian, Inc.),
 the Gaussian 88(TM) system (copyright 1988, Gaussian, Inc.),
 the Gaussian 86(TM) system (copyright 1986, Carnegie Mellon
 University), and the Gaussian 82(TM) system (copyright 1983,
 Carnegie Mellon University). Gaussian is a federally registered
 trademark of Gaussian, Inc.
  
 This software contains proprietary and confidential information,
 including trade secrets, belonging to Gaussian, Inc.
  
 This software is provided under written license and may be
 used, copied, transmitted, or stored only in accord with that
 written license.
  
 The following legend is applicable only to US Government
 contracts under FAR:
  
                    RESTRICTED RIGHTS LEGEND
  
 Use, reproduction and disclosure by the US Government is
 subject to restrictions as set forth in subparagraphs (a)
 and (c) of the Commercial Computer Software - Restricted
 Rights clause in FAR 52.227-19.
  
 Gaussian, Inc.
 340 Quinnipiac St., Bldg. 40, Wallingford CT 06492
  
  
 ---------------------------------------------------------------
 Warning -- This program may not be used in any manner that
 competes with the business of Gaussian, Inc. or will provide
 assistance to any competitor of Gaussian, Inc.  The licensee
 of this program is prohibited from giving any competitor of
 Gaussian, Inc. access to this program.  By using this program,
 the user acknowledges that Gaussian, Inc. is engaged in the
 business of creating and licensing software in the field of
 computational chemistry and represents and warrants to the
 licensee that it is not a competitor of Gaussian, Inc. and that
 it will not use this program in any manner prohibited above.
 ---------------------------------------------------------------
  

 Cite this work as:
 Gaussian 09, Revision C.01,
 M. J. Frisch, G. W. Trucks, H. B. Schlegel, G. E. Scuseria, 
 M. A. Robb, J. R. Cheeseman, G. Scalmani, V. Barone, B. Mennucci, 
 G. A. Petersson, H. Nakatsuji, M. Caricato, X. Li, H. P. Hratchian, 
 A. F. Izmaylov, J. Bloino, G. Zheng, J. L. Sonnenberg, M. Hada, 
 M. Ehara, K. Toyota, R. Fukuda, J. Hasegawa, M. Ishida, T. Nakajima, 
 Y. Honda, O. Kitao, H. Nakai, T. Vreven, J. A. Montgomery, Jr., 
 J. E. Peralta, F. Ogliaro, M. Bearpark, J. J. Heyd, E. Brothers, 
 K. N. Kudin, V. N. Staroverov, T. Keith, R. Kobayashi, J. Normand, 
 K. Raghavachari, A. Rendell, J. C. Burant, S. S. Iyengar, J. Tomasi, 
 M. Cossi, N. Rega, J. M. Millam, M. Klene, J. E. Knox, J. B. Cross, 
 V. Bakken, C. Adamo, J. Jaramillo, R. Gomperts, R. E. Stratmann, 
 O. Yazyev, A. J. Austin, R. Cammi, C. Pomelli, J. W. Ochterski, 
 R. L. Martin, K. Morokuma, V. G. Zakrzewski, G. A. Voth, 
 P. Salvador, J. J. Dannenberg, S. Dapprich, A. D. Daniels, 
 O. Farkas, J. B. Foresman, J. V. Ortiz, J. Cioslowski, 
 and D. J. Fox, Gaussian, Inc., Wallingford CT, 2010.
 
 ******************************************
 Gaussian 09:  EM64L-G09RevC.01 23-Sep-2011
                10-Aug-2018 
 ******************************************
 %nproc=2
 Will use up to    2 processors via shared memory.
 %mem=256MB
 %RWF=bm3.rwf
 %chk=bm3255
 %NoSave
 --------------------------------------
 #SP PBE1PBE/Def2TZVP geom=connectivity
 --------------------------------------
 1/38=1,57=2/1;
 2/12=2,17=6,18=5,40=1/2;
 3/5=44,7=101,11=2,16=1,25=1,30=1,74=-13/1,2,3;
 4//1;
 5/5=2,38=5/2;
 6/7=2,8=2,9=2,10=2,28=1/1;
 99/5=1,9=1/99;
 --------------
 Structure: 255
 --------------
 Charge =  0 Multiplicity = 1
 Symbolic Z-Matrix:
 H                     0.        0.        0. 
 C                     1.093     0.        0. 
 C                     1.655     1.421     0. 
 H                     1.41     -0.56     -0.885 
 H                     1.424    -0.557     0.88 
 H                     1.308     1.969    -0.883 
 Si                    3.513     1.515     0.035 
 H                     1.282     1.975     0.868 
 O                     4.288     0.703    -1.388 
 O                     3.968     0.824     1.454 
 H                     4.029     2.906    -0.04 
 H                     4.048    -0.208    -1.562 
 C                     5.301     0.766     1.905 
 H                     5.308     0.322     2.902 
 H                     5.747     1.766     1.967 
 H                     5.921     0.153     1.244 
 
                          Input orientation:                          
 ---------------------------------------------------------------------
 Center     Atomic      Atomic             Coordinates (Angstroms)
 Number     Number       Type             X           Y           Z
 ---------------------------------------------------------------------
      1          1           0        0.000000    0.000000    0.000000
      2          6           0        1.093000    0.000000    0.000000
      3          6           0        1.655000    1.421000    0.000000
      4          1           0        1.410000   -0.560000   -0.885000
      5          1           0        1.424000   -0.557000    0.880000
      6          1           0        1.308000    1.969000   -0.883000
      7         14           0        3.513000    1.515000    0.035000
      8          1           0        1.282000    1.975000    0.868000
      9          8           0        4.288000    0.703000   -1.388000
     10          8           0        3.968000    0.824000    1.454000
     11          1           0        4.029000    2.906000   -0.040000
     12          1           0        4.048000   -0.208000   -1.562000
     13          6           0        5.301000    0.766000    1.905000
     14          1           0        5.308000    0.322000    2.902000
     15          1           0        5.747000    1.766000    1.967000
     16          1           0        5.921000    0.153000    1.244000
 ---------------------------------------------------------------------
                    Distance matrix (angstroms):
                    1          2          3          4          5
     1  H    0.000000
     2  C    1.093000   0.000000
     3  C    2.181345   1.528098   0.000000
     4  H    1.756395   1.094218   2.183486   0.000000
     5  H    1.764207   1.092799   2.177210   1.765058   0.000000
     6  H    2.523393   2.168611   1.095629   2.531057   3.082580
     7  Si   3.825914   2.855320   1.860706   3.094291   3.061230
     8  H    2.509497   2.165588   1.095203   3.084740   2.536007
     9  O    4.561545   3.553699   3.061822   3.182933   3.864443
    10  O    4.305591   3.325465   2.796515   3.732257   2.951029
    11  H    4.967824   4.131166   2.800482   4.425646   4.429988
    12  H    4.343894   3.348900   3.289367   2.746139   3.601464
    13  C    5.684750   4.682205   4.165497   4.968124   4.222805
    14  H    6.058065   5.127525   4.793101   5.505788   4.466160
    15  H    6.325809   5.352342   4.553304   5.688036   5.026552
    16  H    6.052205   4.988039   4.621051   5.038862   4.567232
                    6          7          8          9         10
     6  H    0.000000
     7  Si   2.431227   0.000000
     8  H    1.751203   2.425459   0.000000
     9  O    3.276916   1.812429   3.967815   0.000000
    10  O    3.721316   1.642579   2.980401   2.862517   0.000000
    11  H    2.998743   1.485517   3.039282   2.595649   2.563295
    12  H    3.564824   2.409432   4.280321   0.958017   3.188680
    13  C    5.016393   2.693482   4.323125   3.445865   1.408423
    14  H    5.747942   3.586776   4.803982   4.426021   2.035757
    15  H    5.279056   2.964183   4.603011   3.809813   2.077348
    16  H    5.394604   3.019137   4.998138   3.145888   2.075705
                   11         12         13         14         15
    11  H    0.000000
    12  H    3.466099   0.000000
    13  C    3.159210   3.812974   0.000000
    14  H    4.119255   4.668597   1.091418   0.000000
    15  H    2.877355   4.386014   1.096704   1.775410   0.000000
    16  H    3.578733   3.392947   1.094116   1.775752   1.776168
                   16
    16  H    0.000000
 Stoichiometry    C3H10O2Si
 Framework group  C1[X(C3H10O2Si)]
 Deg. of freedom    42
 Full point group                 C1      NOp   1
 Largest Abelian subgroup         C1      NOp   1
 Largest concise Abelian subgroup C1      NOp   1
                         Standard orientation:                         
 ---------------------------------------------------------------------
 Center     Atomic      Atomic             Coordinates (Angstroms)
 Number     Number       Type             X           Y           Z
 ---------------------------------------------------------------------
      1          1           0       -3.234286   -1.164112   -0.578322
      2          6           0       -2.237679   -0.732092   -0.699906
      3          6           0       -1.624632   -0.345821    0.645476
      4          1           0       -2.346238    0.135004   -1.358446
      5          1           0       -1.619378   -1.467521   -1.220538
      6          1           0       -2.259373    0.384978    1.158738
      7         14           0        0.090320    0.367537    0.534634
      8          1           0       -1.574435   -1.220253    1.302986
      9          8           0        0.163925    1.876822   -0.466136
     10          8           0        1.030205   -0.825537   -0.090874
     11          1           0        0.628965    0.800505    1.849609
     12          1           0       -0.189788    1.835296   -1.355495
     13          6           0        2.423953   -0.716339   -0.261743
     14          1           0        2.802151   -1.673401   -0.625327
     15          1           0        2.926499   -0.481047    0.684219
     16          1           0        2.678520    0.060272   -0.989177
 ---------------------------------------------------------------------
 Rotational constants (GHZ):      3.7584323      1.8882227      1.5420016
 Standard basis: def2TZVP (5D, 7F)
 There are   252 symmetry adapted basis functions of A   symmetry.
 Integral buffers will be    131072 words long.
 Raffenetti 2 integral format.
 Two-electron integral symmetry is turned on.
   252 basis functions,   404 primitive gaussians,   282 cartesian basis functions
    29 alpha electrons       29 beta electrons
       nuclear repulsion energy       324.2130990208 Hartrees.
 NAtoms=   16 NActive=   16 NUniq=   16 SFac= 1.00D+00 NAtFMM=   60 NAOKFM=F Big=F
 One-electron integrals computed using PRISM.
   1 Symmetry operations used in ECPInt.
 ECPInt:  NShTT=    5886 NPrTT=   17754 LenC2=    5776 LenP2D=   13878.
 LDataN:  DoStor=T MaxTD1= 6 Len=  172
 NBasis=   252 RedAO= T  NBF=   252
 NBsUse=   252 1.00D-06 NBFU=   252
 Harris functional with IExCor= 1009 diagonalized for initial guess.
 ExpMin= 7.01D-02 ExpMax= 4.48D+04 ExpMxC= 1.53D+03 IAcc=2 IRadAn=         4 AccDes= 0.00D+00
 HarFok:  IExCor= 1009 AccDes= 0.00D+00 IRadAn=         4 IDoV= 1
 ScaDFX=  1.000000  1.000000  1.000000  1.000000
 FoFCou: FMM=F IPFlag=           0 FMFlag=      100000 FMFlg1=           0
         NFxFlg=           0 DoJE=T BraDBF=F KetDBF=T FulRan=T
         Omega=  0.000000  0.000000  1.000000  0.000000  0.000000 ICntrl=     500 IOpCl=  0
         NMat0=    1 NMatS0=    1 NMatT0=    0 NMatD0=    1 NMtDS0=    0 NMtDT0=    0
         I1Cent=           4 NGrid=           0.
 Petite list used in FoFCou.
 Initial guess orbital symmetries:
       Occupied  (A) (A) (A) (A) (A) (A) (A) (A) (A) (A) (A) (A)
                 (A) (A) (A) (A) (A) (A) (A) (A) (A) (A) (A) (A)
                 (A) (A) (A) (A) (A)
       Virtual   (A) (A) (A) (A) (A) (A) (A) (A) (A) (A) (A) (A)
                 (A) (A) (A) (A) (A) (A) (A) (A) (A) (A) (A) (A)
                 (A) (A) (A) (A) (A) (A) (A) (A) (A) (A) (A) (A)
                 (A) (A) (A) (A) (A) (A) (A) (A) (A) (A) (A) (A)
                 (A) (A) (A) (A) (A) (A) (A) (A) (A) (A) (A) (A)
                 (A) (A) (A) (A) (A) (A) (A) (A) (A) (A) (A) (A)
                 (A) (A) (A) (A) (A) (A) (A) (A) (A) (A) (A) (A)
                 (A) (A) (A) (A) (A) (A) (A) (A) (A) (A) (A) (A)
                 (A) (A) (A) (A) (A) (A) (A) (A) (A) (A) (A) (A)
                 (A) (A) (A) (A) (A) (A) (A) (A) (A) (A) (A) (A)
                 (A) (A) (A) (A) (A) (A) (A) (A) (A) (A) (A) (A)
                 (A) (A) (A) (A) (A) (A) (A) (A) (A) (A) (A) (A)
                 (A) (A) (A) (A) (A) (A) (A) (A) (A) (A) (A) (A)
                 (A) (A) (A) (A) (A) (A) (A) (A) (A) (A) (A) (A)
                 (A) (A) (A) (A) (A) (A) (A) (A) (A) (A) (A) (A)
                 (A) (A) (A) (A) (A) (A) (A) (A) (A) (A) (A) (A)
                 (A) (A) (A) (A) (A) (A) (A) (A) (A) (A) (A) (A)
                 (A) (A) (A) (A) (A) (A) (A) (A) (A) (A) (A) (A)
                 (A) (A) (A) (A) (A) (A) (A)
 The electronic state of the initial guess is 1-A.
 Requested convergence on RMS density matrix=1.00D-08 within 128 cycles.
 Requested convergence on MAX density matrix=1.00D-06.
 Requested convergence on             energy=1.00D-06.
 No special actions if energy rises.
 Integral accuracy reduced to 1.0D-05 until final iterations.
 Initial convergence to 1.0D-05 achieved.  Increase integral accuracy.
 SCF Done:  E(RPBE1PBE) =  -560.049764766     A.U. after   13 cycles
             Convg  =    0.5035D-08             -V/T =  2.0037

 **********************************************************************

            Population analysis using the SCF density.

 **********************************************************************

 Orbital symmetries:
       Occupied  (A) (A) (A) (A) (A) (A) (A) (A) (A) (A) (A) (A)
                 (A) (A) (A) (A) (A) (A) (A) (A) (A) (A) (A) (A)
                 (A) (A) (A) (A) (A)
       Virtual   (A) (A) (A) (A) (A) (A) (A) (A) (A) (A) (A) (A)
                 (A) (A) (A) (A) (A) (A) (A) (A) (A) (A) (A) (A)
                 (A) (A) (A) (A) (A) (A) (A) (A) (A) (A) (A) (A)
                 (A) (A) (A) (A) (A) (A) (A) (A) (A) (A) (A) (A)
                 (A) (A) (A) (A) (A) (A) (A) (A) (A) (A) (A) (A)
                 (A) (A) (A) (A) (A) (A) (A) (A) (A) (A) (A) (A)
                 (A) (A) (A) (A) (A) (A) (A) (A) (A) (A) (A) (A)
                 (A) (A) (A) (A) (A) (A) (A) (A) (A) (A) (A) (A)
                 (A) (A) (A) (A) (A) (A) (A) (A) (A) (A) (A) (A)
                 (A) (A) (A) (A) (A) (A) (A) (A) (A) (A) (A) (A)
                 (A) (A) (A) (A) (A) (A) (A) (A) (A) (A) (A) (A)
                 (A) (A) (A) (A) (A) (A) (A) (A) (A) (A) (A) (A)
                 (A) (A) (A) (A) (A) (A) (A) (A) (A) (A) (A) (A)
                 (A) (A) (A) (A) (A) (A) (A) (A) (A) (A) (A) (A)
                 (A) (A) (A) (A) (A) (A) (A) (A) (A) (A) (A) (A)
                 (A) (A) (A) (A) (A) (A) (A) (A) (A) (A) (A) (A)
                 (A) (A) (A) (A) (A) (A) (A) (A) (A) (A) (A) (A)
                 (A) (A) (A) (A) (A) (A) (A) (A) (A) (A) (A) (A)
                 (A) (A) (A) (A) (A) (A) (A)
 The electronic state is 1-A.
 Alpha  occ. eigenvalues --  -66.27188 -19.20799 -19.19141 -10.26746 -10.21904
 Alpha  occ. eigenvalues --  -10.21535  -5.34553  -3.68084  -3.67979  -3.67819
 Alpha  occ. eigenvalues --   -1.04621  -0.99213  -0.78575  -0.70908  -0.64383
 Alpha  occ. eigenvalues --   -0.55212  -0.50181  -0.47189  -0.46899  -0.46057
 Alpha  occ. eigenvalues --   -0.43825  -0.41507  -0.38145  -0.36820  -0.36228
 Alpha  occ. eigenvalues --   -0.34289  -0.31716  -0.30717  -0.30132
 Alpha virt. eigenvalues --    0.02132   0.04894   0.05650   0.07716   0.08826
 Alpha virt. eigenvalues --    0.09740   0.10276   0.10844   0.12095   0.13125
 Alpha virt. eigenvalues --    0.13478   0.14926   0.15487   0.16017   0.18965
 Alpha virt. eigenvalues --    0.20979   0.21786   0.22944   0.24289   0.24838
 Alpha virt. eigenvalues --    0.26560   0.27091   0.28620   0.29581   0.30720
 Alpha virt. eigenvalues --    0.32422   0.36554   0.39138   0.39925   0.40556
 Alpha virt. eigenvalues --    0.41753   0.42321   0.43885   0.45034   0.45399
 Alpha virt. eigenvalues --    0.45881   0.47273   0.47777   0.49431   0.49809
 Alpha virt. eigenvalues --    0.50489   0.53237   0.55315   0.56572   0.60515
 Alpha virt. eigenvalues --    0.60715   0.62576   0.64071   0.65653   0.68105
 Alpha virt. eigenvalues --    0.72877   0.73857   0.74355   0.76923   0.79972
 Alpha virt. eigenvalues --    0.81933   0.83510   0.86125   0.87567   0.91654
 Alpha virt. eigenvalues --    0.93063   0.95106   0.96241   0.98958   1.00656
 Alpha virt. eigenvalues --    1.03039   1.05304   1.06606   1.08309   1.11262
 Alpha virt. eigenvalues --    1.11915   1.12905   1.15012   1.18258   1.19700
 Alpha virt. eigenvalues --    1.23612   1.27050   1.32082   1.35889   1.40360
 Alpha virt. eigenvalues --    1.41108   1.45682   1.46506   1.50068   1.52000
 Alpha virt. eigenvalues --    1.53053   1.54139   1.54737   1.55821   1.57489
 Alpha virt. eigenvalues --    1.59266   1.61437   1.62590   1.62963   1.64898
 Alpha virt. eigenvalues --    1.67128   1.69767   1.73696   1.76009   1.78190
 Alpha virt. eigenvalues --    1.80219   1.82778   1.86332   1.89269   1.90552
 Alpha virt. eigenvalues --    1.94132   1.94889   1.98590   1.99083   2.01572
 Alpha virt. eigenvalues --    2.03385   2.06837   2.08701   2.11953   2.13376
 Alpha virt. eigenvalues --    2.16347   2.17400   2.25708   2.27360   2.29578
 Alpha virt. eigenvalues --    2.30654   2.31422   2.32748   2.34860   2.35334
 Alpha virt. eigenvalues --    2.35540   2.39616   2.42510   2.46458   2.48283
 Alpha virt. eigenvalues --    2.50573   2.50923   2.54311   2.55836   2.57950
 Alpha virt. eigenvalues --    2.59041   2.60939   2.64422   2.66577   2.70241
 Alpha virt. eigenvalues --    2.72133   2.75643   2.79054   2.80506   2.82706
 Alpha virt. eigenvalues --    2.83834   2.91999   2.92850   2.98210   2.99583
 Alpha virt. eigenvalues --    3.04259   3.08381   3.09473   3.11106   3.14497
 Alpha virt. eigenvalues --    3.19262   3.22062   3.22541   3.25974   3.29517
 Alpha virt. eigenvalues --    3.31229   3.32317   3.35711   3.39098   3.40040
 Alpha virt. eigenvalues --    3.44108   3.45437   3.45766   3.52511   3.53519
 Alpha virt. eigenvalues --    3.57660   3.59515   3.61867   3.64683   3.76300
 Alpha virt. eigenvalues --    3.80815   3.83919   3.92095   3.95316   4.02475
 Alpha virt. eigenvalues --    4.18642   4.23834   4.24514   4.33884   4.36549
 Alpha virt. eigenvalues --    4.41431   4.46495   4.52985   4.56576   4.78263
 Alpha virt. eigenvalues --    5.13077   5.17160   5.17608   5.18514   5.24785
 Alpha virt. eigenvalues --    5.28560   5.37366   5.40804   5.45467   5.51053
 Alpha virt. eigenvalues --    5.78911   5.85690   6.02893   6.21877   6.36173
 Alpha virt. eigenvalues --    6.40323   6.50341   6.55041   6.56437   6.59746
 Alpha virt. eigenvalues --    6.61295   6.76255   6.80616   6.91064   7.04603
 Alpha virt. eigenvalues --    7.12114   7.18490  11.68099  22.36755  22.40554
 Alpha virt. eigenvalues --   22.44553  43.54125  43.93290
          Condensed to atoms (all electrons):
              1          2          3          4          5          6
     1  H    0.552279   0.406670  -0.033794  -0.025107  -0.024870  -0.006893
     2  C    0.406670   4.942213   0.319093   0.399065   0.411853  -0.026642
     3  C   -0.033794   0.319093   5.006442  -0.043012  -0.038366   0.388624
     4  H   -0.025107   0.399065  -0.043012   0.575986  -0.026107  -0.004972
     5  H   -0.024870   0.411853  -0.038366  -0.026107   0.534476   0.007585
     6  H   -0.006893  -0.026642   0.388624  -0.004972   0.007585   0.573363
     7  Si   0.008196  -0.023366   0.416933  -0.003334  -0.009503  -0.030317
     8  H   -0.006582  -0.029542   0.371637   0.008776  -0.004070  -0.027219
     9  O    0.000042  -0.004981  -0.029977   0.005591  -0.000336  -0.000747
    10  O    0.000026  -0.005221  -0.030598   0.000384   0.007679   0.001330
    11  H   -0.000119   0.001537  -0.033227   0.000209   0.000384   0.001102
    12  H   -0.000053  -0.000322  -0.001549   0.001739  -0.000016   0.000037
    13  C    0.000013  -0.000188   0.001597   0.000129  -0.000003  -0.000124
    14  H   -0.000004   0.000228  -0.000395  -0.000005  -0.000164   0.000000
    15  H    0.000001  -0.000049   0.000043  -0.000002   0.000080   0.000004
    16  H    0.000000  -0.000090   0.000758  -0.000021  -0.000003   0.000014
              7          8          9         10         11         12
     1  H    0.008196  -0.006582   0.000042   0.000026  -0.000119  -0.000053
     2  C   -0.023366  -0.029542  -0.004981  -0.005221   0.001537  -0.000322
     3  C    0.416933   0.371637  -0.029977  -0.030598  -0.033227  -0.001549
     4  H   -0.003334   0.008776   0.005591   0.000384   0.000209   0.001739
     5  H   -0.009503  -0.004070  -0.000336   0.007679   0.000384  -0.000016
     6  H   -0.030317  -0.027219  -0.000747   0.001330   0.001102   0.000037
     7  Si  11.932962  -0.013109   0.410287   0.446948   0.391042  -0.024381
     8  H   -0.013109   0.575240   0.001594   0.001778   0.000827  -0.000072
     9  O    0.410287   0.001594   7.967188  -0.027357  -0.014000   0.291528
    10  O    0.446948   0.001778  -0.027357   7.827586  -0.025180  -0.000545
    11  H    0.391042   0.000827  -0.014000  -0.025180   0.712834   0.003044
    12  H   -0.024381  -0.000072   0.291528  -0.000545   0.003044   0.417640
    13  C   -0.052150   0.000118  -0.007124   0.260605   0.002463   0.000470
    14  H    0.008315   0.000000   0.000136  -0.040663  -0.000214   0.000016
    15  H   -0.017598  -0.000025  -0.000366  -0.042193   0.009445   0.000012
    16  H   -0.003211  -0.000018   0.007144  -0.042573  -0.001782   0.000119
             13         14         15         16
     1  H    0.000013  -0.000004   0.000001   0.000000
     2  C   -0.000188   0.000228  -0.000049  -0.000090
     3  C    0.001597  -0.000395   0.000043   0.000758
     4  H    0.000129  -0.000005  -0.000002  -0.000021
     5  H   -0.000003  -0.000164   0.000080  -0.000003
     6  H   -0.000124   0.000000   0.000004   0.000014
     7  Si  -0.052150   0.008315  -0.017598  -0.003211
     8  H    0.000118   0.000000  -0.000025  -0.000018
     9  O   -0.007124   0.000136  -0.000366   0.007144
    10  O    0.260605  -0.040663  -0.042193  -0.042573
    11  H    0.002463  -0.000214   0.009445  -0.001782
    12  H    0.000470   0.000016   0.000012   0.000119
    13  C    4.776865   0.400377   0.417786   0.412076
    14  H    0.400377   0.565445  -0.030371  -0.032353
    15  H    0.417786  -0.030371   0.591282  -0.045969
    16  H    0.412076  -0.032353  -0.045969   0.579507
 Mulliken atomic charges:
              1
     1  H    0.130196
     2  C   -0.390260
     3  C   -0.294209
     4  H    0.110681
     5  H    0.141378
     6  H    0.124855
     7  Si   0.562287
     8  H    0.120666
     9  O   -0.598623
    10  O   -0.332007
    11  H   -0.048365
    12  H    0.312334
    13  C   -0.212910
    14  H    0.129652
    15  H    0.117922
    16  H    0.126402
 Sum of Mulliken atomic charges =   0.00000
 Mulliken charges with hydrogens summed into heavy atoms:
              1
     2  C   -0.008005
     3  C   -0.048688
     7  Si   0.513923
     9  O   -0.286288
    10  O   -0.332007
    13  C    0.161066
 Sum of Mulliken charges with hydrogens summed into heavy atoms =   0.00000
 Electronic spatial extent (au):  <R**2>=            886.4172
 Charge=              0.0000 electrons
 Dipole moment (field-independent basis, Debye):
    X=             -0.3039    Y=             -1.1151    Z=             -0.5439  Tot=              1.2773
 Quadrupole moment (field-independent basis, Debye-Ang):
   XX=            -40.7155   YY=            -50.3462   ZZ=            -42.8007
   XY=             -1.8056   XZ=             -0.2495   YZ=             -1.8279
 Traceless Quadrupole moment (field-independent basis, Debye-Ang):
   XX=              3.9053   YY=             -5.7254   ZZ=              1.8201
   XY=             -1.8056   XZ=             -0.2495   YZ=             -1.8279
 Octapole moment (field-independent basis, Debye-Ang**2):
  XXX=             14.3082  YYY=             -9.3857  ZZZ=             -9.1865  XYY=             -1.5229
  XXY=             -2.7266  XXZ=             -1.3913  XZZ=              0.7837  YZZ=              5.4488
  YYZ=             -4.3037  XYZ=              2.0568
 Hexadecapole moment (field-independent basis, Debye-Ang**3):
 XXXX=           -699.6564 YYYY=           -316.9952 ZZZZ=           -173.5296 XXXY=            -12.3892
 XXXZ=             -7.6062 YYYX=            -12.9986 YYYZ=             -9.6226 ZZZX=             -3.2263
 ZZZY=            -17.5345 XXYY=           -165.6020 XXZZ=           -150.5969 YYZZ=            -66.5845
 XXYZ=              0.0445 YYXZ=             -1.1241 ZZXY=             -5.0016
 N-N= 3.242130990208D+02 E-N=-1.972110616424D+03  KE= 5.579980175994D+02
 1\1\GINC-TARSUS2\SP\RPBE1PBE\def2TZVP\C3H10O2Si1\RENATO\10-Aug-2018\0\
 \#SP PBE1PBE/Def2TZVP geom=connectivity\\Structure: 255\\0,1\H,0,0.,0.
 ,0.\C,0,1.093,0.,0.\C,0,1.655,1.421,0.\H,0,1.41,-0.56,-0.885\H,0,1.424
 ,-0.557,0.88\H,0,1.308,1.969,-0.883\Si,0,3.513,1.515,0.035\H,0,1.282,1
 .975,0.868\O,0,4.288,0.703,-1.388\O,0,3.968,0.824,1.454\H,0,4.029,2.90
 6,-0.04\H,0,4.048,-0.208,-1.562\C,0,5.301,0.766,1.905\H,0,5.308,0.322,
 2.902\H,0,5.747,1.766,1.967\H,0,5.921,0.153,1.244\\Version=EM64L-G09Re
 vC.01\State=1-A\HF=-560.0497648\RMSD=5.035e-09\Dipole=-0.258609,-0.271
 1703,0.3348708\Quadrupole=0.9551865,0.9271221,-1.8823087,-1.0158369,3.
 3091587,1.7983357\PG=C01 [X(C3H10O2Si1)]\\@


 EDUCATION DOESN'T COST 
           ... IT PAYS!

 -- POSTMARK, UNIV. OF MISSISSIPPI, DEC 78
 Job cpu time:  0 days  0 hours 13 minutes 54.1 seconds.
 File lengths (MBytes):  RWF=     40 Int=      0 D2E=      0 Chk=      3 Scr=      1
 Normal termination of Gaussian 09 at Fri Aug 10 00:22:36 2018.
