 Entering Gaussian System, Link 0=g09
 Initial command:
 /usr/local/gaussian09/g09/l1.exe /scratch/renato/Gau-10975.inp -scrdir=/scratch/renato/
 Entering Link 1 = /usr/local/gaussian09/g09/l1.exe PID=     10977.
  
 Copyright (c) 1988,1990,1992,1993,1995,1998,2003,2009,2011,
            Gaussian, Inc.  All Rights Reserved.
  
 This is part of the Gaussian(R) 09 program.  It is based on
 the Gaussian(R) 03 system (copyright 2003, Gaussian, Inc.),
 the Gaussian(R) 98 system (copyright 1998, Gaussian, Inc.),
 the Gaussian(R) 94 system (copyright 1995, Gaussian, Inc.),
 the Gaussian 92(TM) system (copyright 1992, Gaussian, Inc.),
 the Gaussian 90(TM) system (copyright 1990, Gaussian, Inc.),
 the Gaussian 88(TM) system (copyright 1988, Gaussian, Inc.),
 the Gaussian 86(TM) system (copyright 1986, Carnegie Mellon
 University), and the Gaussian 82(TM) system (copyright 1983,
 Carnegie Mellon University). Gaussian is a federally registered
 trademark of Gaussian, Inc.
  
 This software contains proprietary and confidential information,
 including trade secrets, belonging to Gaussian, Inc.
  
 This software is provided under written license and may be
 used, copied, transmitted, or stored only in accord with that
 written license.
  
 The following legend is applicable only to US Government
 contracts under FAR:
  
                    RESTRICTED RIGHTS LEGEND
  
 Use, reproduction and disclosure by the US Government is
 subject to restrictions as set forth in subparagraphs (a)
 and (c) of the Commercial Computer Software - Restricted
 Rights clause in FAR 52.227-19.
  
 Gaussian, Inc.
 340 Quinnipiac St., Bldg. 40, Wallingford CT 06492
  
  
 ---------------------------------------------------------------
 Warning -- This program may not be used in any manner that
 competes with the business of Gaussian, Inc. or will provide
 assistance to any competitor of Gaussian, Inc.  The licensee
 of this program is prohibited from giving any competitor of
 Gaussian, Inc. access to this program.  By using this program,
 the user acknowledges that Gaussian, Inc. is engaged in the
 business of creating and licensing software in the field of
 computational chemistry and represents and warrants to the
 licensee that it is not a competitor of Gaussian, Inc. and that
 it will not use this program in any manner prohibited above.
 ---------------------------------------------------------------
  

 Cite this work as:
 Gaussian 09, Revision C.01,
 M. J. Frisch, G. W. Trucks, H. B. Schlegel, G. E. Scuseria, 
 M. A. Robb, J. R. Cheeseman, G. Scalmani, V. Barone, B. Mennucci, 
 G. A. Petersson, H. Nakatsuji, M. Caricato, X. Li, H. P. Hratchian, 
 A. F. Izmaylov, J. Bloino, G. Zheng, J. L. Sonnenberg, M. Hada, 
 M. Ehara, K. Toyota, R. Fukuda, J. Hasegawa, M. Ishida, T. Nakajima, 
 Y. Honda, O. Kitao, H. Nakai, T. Vreven, J. A. Montgomery, Jr., 
 J. E. Peralta, F. Ogliaro, M. Bearpark, J. J. Heyd, E. Brothers, 
 K. N. Kudin, V. N. Staroverov, T. Keith, R. Kobayashi, J. Normand, 
 K. Raghavachari, A. Rendell, J. C. Burant, S. S. Iyengar, J. Tomasi, 
 M. Cossi, N. Rega, J. M. Millam, M. Klene, J. E. Knox, J. B. Cross, 
 V. Bakken, C. Adamo, J. Jaramillo, R. Gomperts, R. E. Stratmann, 
 O. Yazyev, A. J. Austin, R. Cammi, C. Pomelli, J. W. Ochterski, 
 R. L. Martin, K. Morokuma, V. G. Zakrzewski, G. A. Voth, 
 P. Salvador, J. J. Dannenberg, S. Dapprich, A. D. Daniels, 
 O. Farkas, J. B. Foresman, J. V. Ortiz, J. Cioslowski, 
 and D. J. Fox, Gaussian, Inc., Wallingford CT, 2010.
 
 ******************************************
 Gaussian 09:  EM64L-G09RevC.01 23-Sep-2011
                10-Aug-2018 
 ******************************************
 %nproc=2
 Will use up to    2 processors via shared memory.
 %mem=256MB
 %RWF=bm3.rwf
 %chk=bm3287
 %NoSave
 --------------------------------------
 #SP PBE1PBE/Def2TZVP geom=connectivity
 --------------------------------------
 1/38=1,57=2/1;
 2/12=2,17=6,18=5,40=1/2;
 3/5=44,7=101,11=2,16=1,25=1,30=1,74=-13/1,2,3;
 4//1;
 5/5=2,38=5/2;
 6/7=2,8=2,9=2,10=2,28=1/1;
 99/5=1,9=1/99;
 --------------
 Structure: 287
 --------------
 Charge =  0 Multiplicity = 1
 Symbolic Z-Matrix:
 H                     0.        0.        0. 
 C                     1.093     0.        0. 
 C                     1.655     1.421     0. 
 H                     1.41     -0.56     -0.885 
 H                     1.424    -0.557     0.88 
 H                     1.308     1.969    -0.883 
 Si                    3.513     1.515     0.035 
 H                     1.282     1.975     0.868 
 O                     4.315     0.675    -1.438 
 O                     3.968     0.824     1.454 
 H                     4.029     2.906    -0.04 
 H                     4.076    -0.237    -1.612 
 C                     5.301     0.766     1.905 
 H                     5.308     0.322     2.902 
 H                     5.747     1.766     1.967 
 H                     5.921     0.153     1.244 
 
                          Input orientation:                          
 ---------------------------------------------------------------------
 Center     Atomic      Atomic             Coordinates (Angstroms)
 Number     Number       Type             X           Y           Z
 ---------------------------------------------------------------------
      1          1           0        0.000000    0.000000    0.000000
      2          6           0        1.093000    0.000000    0.000000
      3          6           0        1.655000    1.421000    0.000000
      4          1           0        1.410000   -0.560000   -0.885000
      5          1           0        1.424000   -0.557000    0.880000
      6          1           0        1.308000    1.969000   -0.883000
      7         14           0        3.513000    1.515000    0.035000
      8          1           0        1.282000    1.975000    0.868000
      9          8           0        4.315000    0.675000   -1.438000
     10          8           0        3.968000    0.824000    1.454000
     11          1           0        4.029000    2.906000   -0.040000
     12          1           0        4.076000   -0.237000   -1.612000
     13          6           0        5.301000    0.766000    1.905000
     14          1           0        5.308000    0.322000    2.902000
     15          1           0        5.747000    1.766000    1.967000
     16          1           0        5.921000    0.153000    1.244000
 ---------------------------------------------------------------------
                    Distance matrix (angstroms):
                    1          2          3          4          5
     1  H    0.000000
     2  C    1.093000   0.000000
     3  C    2.181345   1.528098   0.000000
     4  H    1.756395   1.094218   2.183486   0.000000
     5  H    1.764207   1.092799   2.177210   1.765058   0.000000
     6  H    2.523393   2.168611   1.095629   2.531057   3.082580
     7  Si   3.825914   2.855320   1.860706   3.094291   3.061230
     8  H    2.509497   2.165588   1.095203   3.084740   2.536007
     9  O    4.598119   3.592319   3.114476   3.204693   3.904975
    10  O    4.305591   3.325465   2.796515   3.732257   2.951029
    11  H    4.967824   4.131166   2.800482   4.425646   4.429988
    12  H    4.389589   3.398971   3.347947   2.782160   3.653159
    13  C    5.684750   4.682205   4.165497   4.968124   4.222805
    14  H    6.058065   5.127525   4.793101   5.505788   4.466160
    15  H    6.325809   5.352342   4.553304   5.688036   5.026552
    16  H    6.052205   4.988039   4.621051   5.038862   4.567232
                    6          7          8          9         10
     6  H    0.000000
     7  Si   2.431227   0.000000
     8  H    1.751203   2.425459   0.000000
     9  O    3.320318   1.875775   4.025758   0.000000
    10  O    3.721316   1.642579   2.980401   2.916552   0.000000
    11  H    2.998743   1.485517   3.039282   2.648313   2.563295
    12  H    3.613821   2.469632   4.341633   0.958718   3.246189
    13  C    5.016393   2.693482   4.323125   3.486564   1.408423
    14  H    5.747942   3.586776   4.803982   4.466123   2.035757
    15  H    5.279056   2.964183   4.603011   3.851614   2.077348
    16  H    5.394604   3.019137   4.998138   3.169360   2.075705
                   11         12         13         14         15
    11  H    0.000000
    12  H    3.514519   0.000000
    13  C    3.159210   3.856932   0.000000
    14  H    4.119255   4.712377   1.091418   0.000000
    15  H    2.877355   4.428712   1.096704   1.775410   0.000000
    16  H    3.578733   3.422406   1.094116   1.775752   1.776168
                   16
    16  H    0.000000
 Stoichiometry    C3H10O2Si
 Framework group  C1[X(C3H10O2Si)]
 Deg. of freedom    42
 Full point group                 C1      NOp   1
 Largest Abelian subgroup         C1      NOp   1
 Largest concise Abelian subgroup C1      NOp   1
                         Standard orientation:                         
 ---------------------------------------------------------------------
 Center     Atomic      Atomic             Coordinates (Angstroms)
 Number     Number       Type             X           Y           Z
 ---------------------------------------------------------------------
      1          1           0       -3.235847   -1.151660   -0.607230
      2          6           0       -2.238652   -0.717618   -0.716128
      3          6           0       -1.625762   -0.370273    0.639897
      4          1           0       -2.345832    0.167869   -1.349956
      5          1           0       -1.621013   -1.438816   -1.257058
      6          1           0       -2.259843    0.346525    1.173323
      7         14           0        0.090120    0.343796    0.549997
      8          1           0       -1.576952   -1.262991    1.272463
      9          8           0        0.168549    1.934613   -0.440802
     10          8           0        1.028828   -0.832300   -0.108556
     11          1           0        0.628679    0.738773    1.876914
     12          1           0       -0.183954    1.918978   -1.332227
     13          6           0        2.422789   -0.720054   -0.275666
     14          1           0        2.799979   -1.666933   -0.665977
     15          1           0        2.925180   -0.512205    0.676785
     16          1           0        2.678655    0.076480   -0.980759
 ---------------------------------------------------------------------
 Rotational constants (GHZ):      3.6494015      1.8842186      1.5258689
 Standard basis: def2TZVP (5D, 7F)
 There are   252 symmetry adapted basis functions of A   symmetry.
 Integral buffers will be    131072 words long.
 Raffenetti 2 integral format.
 Two-electron integral symmetry is turned on.
   252 basis functions,   404 primitive gaussians,   282 cartesian basis functions
    29 alpha electrons       29 beta electrons
       nuclear repulsion energy       322.3060463309 Hartrees.
 NAtoms=   16 NActive=   16 NUniq=   16 SFac= 1.00D+00 NAtFMM=   60 NAOKFM=F Big=F
 One-electron integrals computed using PRISM.
   1 Symmetry operations used in ECPInt.
 ECPInt:  NShTT=    5886 NPrTT=   17754 LenC2=    5772 LenP2D=   13853.
 LDataN:  DoStor=T MaxTD1= 6 Len=  172
 NBasis=   252 RedAO= T  NBF=   252
 NBsUse=   252 1.00D-06 NBFU=   252
 Harris functional with IExCor= 1009 diagonalized for initial guess.
 ExpMin= 7.01D-02 ExpMax= 4.48D+04 ExpMxC= 1.53D+03 IAcc=2 IRadAn=         4 AccDes= 0.00D+00
 HarFok:  IExCor= 1009 AccDes= 0.00D+00 IRadAn=         4 IDoV= 1
 ScaDFX=  1.000000  1.000000  1.000000  1.000000
 FoFCou: FMM=F IPFlag=           0 FMFlag=      100000 FMFlg1=           0
         NFxFlg=           0 DoJE=T BraDBF=F KetDBF=T FulRan=T
         Omega=  0.000000  0.000000  1.000000  0.000000  0.000000 ICntrl=     500 IOpCl=  0
         NMat0=    1 NMatS0=    1 NMatT0=    0 NMatD0=    1 NMtDS0=    0 NMtDT0=    0
         I1Cent=           4 NGrid=           0.
 Petite list used in FoFCou.
 Initial guess orbital symmetries:
       Occupied  (A) (A) (A) (A) (A) (A) (A) (A) (A) (A) (A) (A)
                 (A) (A) (A) (A) (A) (A) (A) (A) (A) (A) (A) (A)
                 (A) (A) (A) (A) (A)
       Virtual   (A) (A) (A) (A) (A) (A) (A) (A) (A) (A) (A) (A)
                 (A) (A) (A) (A) (A) (A) (A) (A) (A) (A) (A) (A)
                 (A) (A) (A) (A) (A) (A) (A) (A) (A) (A) (A) (A)
                 (A) (A) (A) (A) (A) (A) (A) (A) (A) (A) (A) (A)
                 (A) (A) (A) (A) (A) (A) (A) (A) (A) (A) (A) (A)
                 (A) (A) (A) (A) (A) (A) (A) (A) (A) (A) (A) (A)
                 (A) (A) (A) (A) (A) (A) (A) (A) (A) (A) (A) (A)
                 (A) (A) (A) (A) (A) (A) (A) (A) (A) (A) (A) (A)
                 (A) (A) (A) (A) (A) (A) (A) (A) (A) (A) (A) (A)
                 (A) (A) (A) (A) (A) (A) (A) (A) (A) (A) (A) (A)
                 (A) (A) (A) (A) (A) (A) (A) (A) (A) (A) (A) (A)
                 (A) (A) (A) (A) (A) (A) (A) (A) (A) (A) (A) (A)
                 (A) (A) (A) (A) (A) (A) (A) (A) (A) (A) (A) (A)
                 (A) (A) (A) (A) (A) (A) (A) (A) (A) (A) (A) (A)
                 (A) (A) (A) (A) (A) (A) (A) (A) (A) (A) (A) (A)
                 (A) (A) (A) (A) (A) (A) (A) (A) (A) (A) (A) (A)
                 (A) (A) (A) (A) (A) (A) (A) (A) (A) (A) (A) (A)
                 (A) (A) (A) (A) (A) (A) (A) (A) (A) (A) (A) (A)
                 (A) (A) (A) (A) (A) (A) (A)
 The electronic state of the initial guess is 1-A.
 Requested convergence on RMS density matrix=1.00D-08 within 128 cycles.
 Requested convergence on MAX density matrix=1.00D-06.
 Requested convergence on             energy=1.00D-06.
 No special actions if energy rises.
 Integral accuracy reduced to 1.0D-05 until final iterations.
 Initial convergence to 1.0D-05 achieved.  Increase integral accuracy.
 SCF Done:  E(RPBE1PBE) =  -560.041292466     A.U. after   14 cycles
             Convg  =    0.2551D-08             -V/T =  2.0038

 **********************************************************************

            Population analysis using the SCF density.

 **********************************************************************

 Orbital symmetries:
       Occupied  (A) (A) (A) (A) (A) (A) (A) (A) (A) (A) (A) (A)
                 (A) (A) (A) (A) (A) (A) (A) (A) (A) (A) (A) (A)
                 (A) (A) (A) (A) (A)
       Virtual   (A) (A) (A) (A) (A) (A) (A) (A) (A) (A) (A) (A)
                 (A) (A) (A) (A) (A) (A) (A) (A) (A) (A) (A) (A)
                 (A) (A) (A) (A) (A) (A) (A) (A) (A) (A) (A) (A)
                 (A) (A) (A) (A) (A) (A) (A) (A) (A) (A) (A) (A)
                 (A) (A) (A) (A) (A) (A) (A) (A) (A) (A) (A) (A)
                 (A) (A) (A) (A) (A) (A) (A) (A) (A) (A) (A) (A)
                 (A) (A) (A) (A) (A) (A) (A) (A) (A) (A) (A) (A)
                 (A) (A) (A) (A) (A) (A) (A) (A) (A) (A) (A) (A)
                 (A) (A) (A) (A) (A) (A) (A) (A) (A) (A) (A) (A)
                 (A) (A) (A) (A) (A) (A) (A) (A) (A) (A) (A) (A)
                 (A) (A) (A) (A) (A) (A) (A) (A) (A) (A) (A) (A)
                 (A) (A) (A) (A) (A) (A) (A) (A) (A) (A) (A) (A)
                 (A) (A) (A) (A) (A) (A) (A) (A) (A) (A) (A) (A)
                 (A) (A) (A) (A) (A) (A) (A) (A) (A) (A) (A) (A)
                 (A) (A) (A) (A) (A) (A) (A) (A) (A) (A) (A) (A)
                 (A) (A) (A) (A) (A) (A) (A) (A) (A) (A) (A) (A)
                 (A) (A) (A) (A) (A) (A) (A) (A) (A) (A) (A) (A)
                 (A) (A) (A) (A) (A) (A) (A) (A) (A) (A) (A) (A)
                 (A) (A) (A) (A) (A) (A) (A)
 The electronic state is 1-A.
 Alpha  occ. eigenvalues --  -66.27778 -19.21098 -19.18677 -10.26866 -10.21973
 Alpha  occ. eigenvalues --  -10.21782  -5.35081  -3.68619  -3.68506  -3.68338
 Alpha  occ. eigenvalues --   -1.04833  -0.98068  -0.78717  -0.71062  -0.64516
 Alpha  occ. eigenvalues --   -0.55002  -0.49609  -0.47322  -0.47010  -0.46090
 Alpha  occ. eigenvalues --   -0.43923  -0.41691  -0.38243  -0.36785  -0.35743
 Alpha  occ. eigenvalues --   -0.34088  -0.31518  -0.30723  -0.30071
 Alpha virt. eigenvalues --    0.01909   0.04597   0.05472   0.07597   0.08737
 Alpha virt. eigenvalues --    0.09407   0.10075   0.10665   0.12003   0.12885
 Alpha virt. eigenvalues --    0.13398   0.14718   0.15303   0.15881   0.18841
 Alpha virt. eigenvalues --    0.20803   0.21666   0.22714   0.24147   0.24757
 Alpha virt. eigenvalues --    0.26414   0.26648   0.28613   0.29612   0.30555
 Alpha virt. eigenvalues --    0.32327   0.36494   0.38988   0.39898   0.40584
 Alpha virt. eigenvalues --    0.41703   0.42260   0.43788   0.44867   0.45410
 Alpha virt. eigenvalues --    0.45745   0.47200   0.47738   0.49062   0.49649
 Alpha virt. eigenvalues --    0.50363   0.53191   0.55202   0.56513   0.60631
 Alpha virt. eigenvalues --    0.60684   0.62410   0.63536   0.65505   0.68134
 Alpha virt. eigenvalues --    0.72376   0.73610   0.74058   0.76588   0.79663
 Alpha virt. eigenvalues --    0.81548   0.83380   0.86019   0.87434   0.91567
 Alpha virt. eigenvalues --    0.93117   0.94852   0.96043   0.98827   1.00677
 Alpha virt. eigenvalues --    1.02508   1.04725   1.06469   1.08010   1.11114
 Alpha virt. eigenvalues --    1.11718   1.13038   1.14627   1.18158   1.18970
 Alpha virt. eigenvalues --    1.23163   1.26841   1.32066   1.35673   1.40048
 Alpha virt. eigenvalues --    1.40709   1.44942   1.46463   1.50255   1.51781
 Alpha virt. eigenvalues --    1.53095   1.54019   1.54480   1.55499   1.57364
 Alpha virt. eigenvalues --    1.59033   1.60621   1.62289   1.62916   1.64170
 Alpha virt. eigenvalues --    1.66130   1.69238   1.73321   1.75480   1.77785
 Alpha virt. eigenvalues --    1.80041   1.82609   1.86136   1.89487   1.90699
 Alpha virt. eigenvalues --    1.93272   1.94651   1.97820   1.98749   2.00792
 Alpha virt. eigenvalues --    2.02342   2.06315   2.08064   2.11889   2.12861
 Alpha virt. eigenvalues --    2.15975   2.17051   2.25314   2.26706   2.29244
 Alpha virt. eigenvalues --    2.29887   2.30912   2.32591   2.34720   2.35131
 Alpha virt. eigenvalues --    2.35403   2.39268   2.42057   2.46088   2.47919
 Alpha virt. eigenvalues --    2.50293   2.50684   2.54138   2.55720   2.57815
 Alpha virt. eigenvalues --    2.58861   2.60787   2.64108   2.66479   2.69928
 Alpha virt. eigenvalues --    2.71854   2.74988   2.78016   2.79771   2.82107
 Alpha virt. eigenvalues --    2.83243   2.91508   2.92285   2.97086   2.99428
 Alpha virt. eigenvalues --    3.03592   3.08053   3.09295   3.10932   3.14278
 Alpha virt. eigenvalues --    3.18658   3.21898   3.22318   3.25712   3.29365
 Alpha virt. eigenvalues --    3.30903   3.32171   3.34872   3.38174   3.39859
 Alpha virt. eigenvalues --    3.43953   3.45184   3.45605   3.52142   3.53384
 Alpha virt. eigenvalues --    3.57255   3.58881   3.61695   3.64542   3.76120
 Alpha virt. eigenvalues --    3.80662   3.83073   3.91899   3.95116   4.02216
 Alpha virt. eigenvalues --    4.18462   4.23700   4.24279   4.33746   4.36400
 Alpha virt. eigenvalues --    4.41326   4.46325   4.52809   4.56326   4.78104
 Alpha virt. eigenvalues --    5.13034   5.17642   5.17959   5.18663   5.24292
 Alpha virt. eigenvalues --    5.28018   5.37000   5.40374   5.45601   5.51102
 Alpha virt. eigenvalues --    5.78541   5.85321   6.02608   6.21795   6.33171
 Alpha virt. eigenvalues --    6.39902   6.49461   6.53628   6.54872   6.59150
 Alpha virt. eigenvalues --    6.59942   6.75886   6.79838   6.86752   7.04079
 Alpha virt. eigenvalues --    7.10785   7.17499  11.59522  22.36628  22.40392
 Alpha virt. eigenvalues --   22.44287  43.51715  43.92850
          Condensed to atoms (all electrons):
              1          2          3          4          5          6
     1  H    0.552661   0.405995  -0.033865  -0.024987  -0.024942  -0.006895
     2  C    0.405995   4.943874   0.320499   0.398135   0.411437  -0.025737
     3  C   -0.033865   0.320499   4.998111  -0.042404  -0.037917   0.389055
     4  H   -0.024987   0.398135  -0.042404   0.572419  -0.025550  -0.004971
     5  H   -0.024942   0.411437  -0.037917  -0.025550   0.534757   0.007523
     6  H   -0.006895  -0.025737   0.389055  -0.004971   0.007523   0.571469
     7  Si   0.008358  -0.025026   0.414777  -0.002386  -0.009879  -0.030766
     8  H   -0.006480  -0.030055   0.371964   0.008741  -0.004068  -0.027471
     9  O    0.000054  -0.005609  -0.027105   0.005948  -0.000315  -0.000693
    10  O    0.000029  -0.005268  -0.030160   0.000360   0.007704   0.001346
    11  H   -0.000120   0.001458  -0.032696   0.000209   0.000375   0.001016
    12  H   -0.000044  -0.000524  -0.001349   0.001646  -0.000028   0.000024
    13  C    0.000014  -0.000238   0.001486   0.000142   0.000022  -0.000123
    14  H   -0.000004   0.000230  -0.000390  -0.000006  -0.000165   0.000000
    15  H    0.000001  -0.000051   0.000066  -0.000002   0.000079   0.000003
    16  H    0.000000  -0.000073   0.000736  -0.000025  -0.000008   0.000015
              7          8          9         10         11         12
     1  H    0.008358  -0.006480   0.000054   0.000029  -0.000120  -0.000044
     2  C   -0.025026  -0.030055  -0.005609  -0.005268   0.001458  -0.000524
     3  C    0.414777   0.371964  -0.027105  -0.030160  -0.032696  -0.001349
     4  H   -0.002386   0.008741   0.005948   0.000360   0.000209   0.001646
     5  H   -0.009879  -0.004068  -0.000315   0.007704   0.000375  -0.000028
     6  H   -0.030766  -0.027471  -0.000693   0.001346   0.001016   0.000024
     7  Si  11.951368  -0.012685   0.390691   0.446178   0.390652  -0.023419
     8  H   -0.012685   0.574270   0.001491   0.001727   0.000851  -0.000078
     9  O    0.390691   0.001491   8.005177  -0.024514  -0.013131   0.288221
    10  O    0.446178   0.001727  -0.024514   7.821769  -0.024714  -0.000418
    11  H    0.390652   0.000851  -0.013131  -0.024714   0.706676   0.002699
    12  H   -0.023419  -0.000078   0.288221  -0.000418   0.002699   0.422359
    13  C   -0.053039   0.000131  -0.007111   0.260006   0.002471   0.000410
    14  H    0.008509   0.000001   0.000149  -0.040509  -0.000208   0.000014
    15  H   -0.017515  -0.000026  -0.000339  -0.041996   0.009190   0.000020
    16  H   -0.002735  -0.000018   0.007286  -0.042083  -0.001706   0.000065
             13         14         15         16
     1  H    0.000014  -0.000004   0.000001   0.000000
     2  C   -0.000238   0.000230  -0.000051  -0.000073
     3  C    0.001486  -0.000390   0.000066   0.000736
     4  H    0.000142  -0.000006  -0.000002  -0.000025
     5  H    0.000022  -0.000165   0.000079  -0.000008
     6  H   -0.000123   0.000000   0.000003   0.000015
     7  Si  -0.053039   0.008509  -0.017515  -0.002735
     8  H    0.000131   0.000001  -0.000026  -0.000018
     9  O   -0.007111   0.000149  -0.000339   0.007286
    10  O    0.260006  -0.040509  -0.041996  -0.042083
    11  H    0.002471  -0.000208   0.009190  -0.001706
    12  H    0.000410   0.000014   0.000020   0.000065
    13  C    4.780293   0.399628   0.417640   0.411925
    14  H    0.399628   0.564880  -0.030344  -0.031831
    15  H    0.417640  -0.030344   0.590491  -0.045350
    16  H    0.411925  -0.031831  -0.045350   0.574960
 Mulliken atomic charges:
              1
     1  H    0.130228
     2  C   -0.389047
     3  C   -0.290807
     4  H    0.112732
     5  H    0.140976
     6  H    0.126206
     7  Si   0.566918
     8  H    0.121705
     9  O   -0.620198
    10  O   -0.329458
    11  H   -0.043023
    12  H    0.310403
    13  C   -0.213657
    14  H    0.130047
    15  H    0.118134
    16  H    0.128842
 Sum of Mulliken atomic charges =   0.00000
 Mulliken charges with hydrogens summed into heavy atoms:
              1
     2  C   -0.005112
     3  C   -0.042896
     7  Si   0.523895
     9  O   -0.309795
    10  O   -0.329458
    13  C    0.163366
 Sum of Mulliken charges with hydrogens summed into heavy atoms =   0.00000
 Electronic spatial extent (au):  <R**2>=            894.3715
 Charge=              0.0000 electrons
 Dipole moment (field-independent basis, Debye):
    X=             -0.3101    Y=             -1.3408    Z=             -0.4320  Tot=              1.4424
 Quadrupole moment (field-independent basis, Debye-Ang):
   XX=            -40.5396   YY=            -50.7947   ZZ=            -42.7662
   XY=             -1.8693   XZ=             -0.2722   YZ=             -1.8822
 Traceless Quadrupole moment (field-independent basis, Debye-Ang):
   XX=              4.1606   YY=             -6.0946   ZZ=              1.9339
   XY=             -1.8693   XZ=             -0.2722   YZ=             -1.8822
 Octapole moment (field-independent basis, Debye-Ang**2):
  XXX=             14.2683  YYY=            -10.6577  ZZZ=             -8.6198  XYY=             -1.7914
  XXY=             -3.0002  XXZ=             -1.4371  XZZ=              0.8511  YZZ=              5.5535
  YYZ=             -4.7172  XYZ=              2.1185
 Hexadecapole moment (field-independent basis, Debye-Ang**3):
 XXXX=           -697.4352 YYYY=           -328.0215 ZZZZ=           -175.6773 XXXY=            -12.4277
 XXXZ=             -7.9943 YYYX=            -13.4839 YYYZ=            -10.9863 ZZZX=             -3.4087
 ZZZY=            -16.6679 XXYY=           -167.0547 XXZZ=           -150.3509 YYZZ=            -67.2333
 XXYZ=              0.3632 YYXZ=             -1.0175 ZZXY=             -5.0082
 N-N= 3.223060463309D+02 E-N=-1.968200058759D+03  KE= 5.579360499548D+02
 1\1\GINC-TARSUS2\SP\RPBE1PBE\def2TZVP\C3H10O2Si1\RENATO\10-Aug-2018\0\
 \#SP PBE1PBE/Def2TZVP geom=connectivity\\Structure: 287\\0,1\H,0,0.,0.
 ,0.\C,0,1.093,0.,0.\C,0,1.655,1.421,0.\H,0,1.41,-0.56,-0.885\H,0,1.424
 ,-0.557,0.88\H,0,1.308,1.969,-0.883\Si,0,3.513,1.515,0.035\H,0,1.282,1
 .975,0.868\O,0,4.315,0.675,-1.438\O,0,3.968,0.824,1.454\H,0,4.029,2.90
 6,-0.04\H,0,4.076,-0.237,-1.612\C,0,5.301,0.766,1.905\H,0,5.308,0.322,
 2.902\H,0,5.747,1.766,1.967\H,0,5.921,0.153,1.244\\Version=EM64L-G09Re
 vC.01\State=1-A\HF=-560.0412925\RMSD=2.551e-09\Dipole=-0.3038547,-0.22
 35878,0.4239196\Quadrupole=1.0150018,1.1120084,-2.1270103,-0.9724417,3
 .5529895,1.7462592\PG=C01 [X(C3H10O2Si1)]\\@


 ALL MEN WHO EXPLORE
 DEPLORE
 THAT FRUSTRATING HURDLE
 THE GIRDLE.

         -- COLIN FLETCHER
 Job cpu time:  0 days  0 hours 14 minutes 15.4 seconds.
 File lengths (MBytes):  RWF=     40 Int=      0 D2E=      0 Chk=      3 Scr=      1
 Normal termination of Gaussian 09 at Fri Aug 10 03:58:55 2018.
