 Entering Gaussian System, Link 0=g09
 Initial command:
 /usr/local/gaussian09/g09/l1.exe /scratch/renato/Gau-9163.inp -scrdir=/scratch/renato/
 Entering Link 1 = /usr/local/gaussian09/g09/l1.exe PID=      9165.
  
 Copyright (c) 1988,1990,1992,1993,1995,1998,2003,2009,2011,
            Gaussian, Inc.  All Rights Reserved.
  
 This is part of the Gaussian(R) 09 program.  It is based on
 the Gaussian(R) 03 system (copyright 2003, Gaussian, Inc.),
 the Gaussian(R) 98 system (copyright 1998, Gaussian, Inc.),
 the Gaussian(R) 94 system (copyright 1995, Gaussian, Inc.),
 the Gaussian 92(TM) system (copyright 1992, Gaussian, Inc.),
 the Gaussian 90(TM) system (copyright 1990, Gaussian, Inc.),
 the Gaussian 88(TM) system (copyright 1988, Gaussian, Inc.),
 the Gaussian 86(TM) system (copyright 1986, Carnegie Mellon
 University), and the Gaussian 82(TM) system (copyright 1983,
 Carnegie Mellon University). Gaussian is a federally registered
 trademark of Gaussian, Inc.
  
 This software contains proprietary and confidential information,
 including trade secrets, belonging to Gaussian, Inc.
  
 This software is provided under written license and may be
 used, copied, transmitted, or stored only in accord with that
 written license.
  
 The following legend is applicable only to US Government
 contracts under FAR:
  
                    RESTRICTED RIGHTS LEGEND
  
 Use, reproduction and disclosure by the US Government is
 subject to restrictions as set forth in subparagraphs (a)
 and (c) of the Commercial Computer Software - Restricted
 Rights clause in FAR 52.227-19.
  
 Gaussian, Inc.
 340 Quinnipiac St., Bldg. 40, Wallingford CT 06492
  
  
 ---------------------------------------------------------------
 Warning -- This program may not be used in any manner that
 competes with the business of Gaussian, Inc. or will provide
 assistance to any competitor of Gaussian, Inc.  The licensee
 of this program is prohibited from giving any competitor of
 Gaussian, Inc. access to this program.  By using this program,
 the user acknowledges that Gaussian, Inc. is engaged in the
 business of creating and licensing software in the field of
 computational chemistry and represents and warrants to the
 licensee that it is not a competitor of Gaussian, Inc. and that
 it will not use this program in any manner prohibited above.
 ---------------------------------------------------------------
  

 Cite this work as:
 Gaussian 09, Revision C.01,
 M. J. Frisch, G. W. Trucks, H. B. Schlegel, G. E. Scuseria, 
 M. A. Robb, J. R. Cheeseman, G. Scalmani, V. Barone, B. Mennucci, 
 G. A. Petersson, H. Nakatsuji, M. Caricato, X. Li, H. P. Hratchian, 
 A. F. Izmaylov, J. Bloino, G. Zheng, J. L. Sonnenberg, M. Hada, 
 M. Ehara, K. Toyota, R. Fukuda, J. Hasegawa, M. Ishida, T. Nakajima, 
 Y. Honda, O. Kitao, H. Nakai, T. Vreven, J. A. Montgomery, Jr., 
 J. E. Peralta, F. Ogliaro, M. Bearpark, J. J. Heyd, E. Brothers, 
 K. N. Kudin, V. N. Staroverov, T. Keith, R. Kobayashi, J. Normand, 
 K. Raghavachari, A. Rendell, J. C. Burant, S. S. Iyengar, J. Tomasi, 
 M. Cossi, N. Rega, J. M. Millam, M. Klene, J. E. Knox, J. B. Cross, 
 V. Bakken, C. Adamo, J. Jaramillo, R. Gomperts, R. E. Stratmann, 
 O. Yazyev, A. J. Austin, R. Cammi, C. Pomelli, J. W. Ochterski, 
 R. L. Martin, K. Morokuma, V. G. Zakrzewski, G. A. Voth, 
 P. Salvador, J. J. Dannenberg, S. Dapprich, A. D. Daniels, 
 O. Farkas, J. B. Foresman, J. V. Ortiz, J. Cioslowski, 
 and D. J. Fox, Gaussian, Inc., Wallingford CT, 2010.
 
 ******************************************
 Gaussian 09:  EM64L-G09RevC.01 23-Sep-2011
                10-Aug-2018 
 ******************************************
 %nproc=2
 Will use up to    2 processors via shared memory.
 %mem=256MB
 %RWF=bm3.rwf
 %chk=bm3264
 %NoSave
 --------------------------------------
 #SP PBE1PBE/Def2TZVP geom=connectivity
 --------------------------------------
 1/38=1,57=2/1;
 2/12=2,17=6,18=5,40=1/2;
 3/5=44,7=101,11=2,16=1,25=1,30=1,74=-13/1,2,3;
 4//1;
 5/5=2,38=5/2;
 6/7=2,8=2,9=2,10=2,28=1/1;
 99/5=1,9=1/99;
 --------------
 Structure: 264
 --------------
 Charge =  0 Multiplicity = 1
 Symbolic Z-Matrix:
 H                     0.        0.        0. 
 C                     1.093     0.        0. 
 C                     1.655     1.421     0. 
 H                     1.41     -0.56     -0.885 
 H                     1.424    -0.557     0.88 
 H                     1.308     1.969    -0.883 
 Si                    3.513     1.515     0.035 
 H                     1.282     1.975     0.868 
 O                     4.295     0.695    -1.402 
 O                     3.968     0.824     1.454 
 H                     4.029     2.906    -0.04 
 H                     4.056    -0.216    -1.576 
 C                     5.301     0.766     1.905 
 H                     5.308     0.322     2.902 
 H                     5.747     1.766     1.967 
 H                     5.921     0.153     1.244 
 
                          Input orientation:                          
 ---------------------------------------------------------------------
 Center     Atomic      Atomic             Coordinates (Angstroms)
 Number     Number       Type             X           Y           Z
 ---------------------------------------------------------------------
      1          1           0        0.000000    0.000000    0.000000
      2          6           0        1.093000    0.000000    0.000000
      3          6           0        1.655000    1.421000    0.000000
      4          1           0        1.410000   -0.560000   -0.885000
      5          1           0        1.424000   -0.557000    0.880000
      6          1           0        1.308000    1.969000   -0.883000
      7         14           0        3.513000    1.515000    0.035000
      8          1           0        1.282000    1.975000    0.868000
      9          8           0        4.295000    0.695000   -1.402000
     10          8           0        3.968000    0.824000    1.454000
     11          1           0        4.029000    2.906000   -0.040000
     12          1           0        4.056000   -0.216000   -1.576000
     13          6           0        5.301000    0.766000    1.905000
     14          1           0        5.308000    0.322000    2.902000
     15          1           0        5.747000    1.766000    1.967000
     16          1           0        5.921000    0.153000    1.244000
 ---------------------------------------------------------------------
                    Distance matrix (angstroms):
                    1          2          3          4          5
     1  H    0.000000
     2  C    1.093000   0.000000
     3  C    2.181345   1.528098   0.000000
     4  H    1.756395   1.094218   2.183486   0.000000
     5  H    1.764207   1.092799   2.177210   1.765058   0.000000
     6  H    2.523393   2.168611   1.095629   2.531057   3.082580
     7  Si   3.825914   2.855320   1.860706   3.094291   3.061230
     8  H    2.509497   2.165588   1.095203   3.084740   2.536007
     9  O    4.571176   3.563907   3.076082   3.188344   3.875264
    10  O    4.305591   3.325465   2.796515   3.732257   2.951029
    11  H    4.967824   4.131166   2.800482   4.425646   4.429988
    12  H    4.356784   3.363005   3.305805   2.756290   3.616026
    13  C    5.684750   4.682205   4.165497   4.968124   4.222805
    14  H    6.058065   5.127525   4.793101   5.505788   4.466160
    15  H    6.325809   5.352342   4.553304   5.688036   5.026552
    16  H    6.052205   4.988039   4.621051   5.038862   4.567232
                    6          7          8          9         10
     6  H    0.000000
     7  Si   2.431227   0.000000
     8  H    1.751203   2.425459   0.000000
     9  O    3.288557   1.829998   3.983650   0.000000
    10  O    3.721316   1.642579   2.980401   2.877552   0.000000
    11  H    2.998743   1.485517   3.039282   2.610425   2.563295
    12  H    3.578544   2.426217   4.297522   0.957767   3.204722
    13  C    5.016393   2.693482   4.323125   3.457358   1.408423
    14  H    5.747942   3.586776   4.803982   4.437309   2.035757
    15  H    5.279056   2.964183   4.603011   3.821715   2.077348
    16  H    5.394604   3.019137   4.998138   3.152611   2.075705
                   11         12         13         14         15
    11  H    0.000000
    12  H    3.479498   0.000000
    13  C    3.159210   3.825142   0.000000
    14  H    4.119255   4.680751   1.091418   0.000000
    15  H    2.877355   4.397801   1.096704   1.775410   0.000000
    16  H    3.578733   3.400998   1.094116   1.775752   1.776168
                   16
    16  H    0.000000
 Stoichiometry    C3H10O2Si
 Framework group  C1[X(C3H10O2Si)]
 Deg. of freedom    42
 Full point group                 C1      NOp   1
 Largest Abelian subgroup         C1      NOp   1
 Largest concise Abelian subgroup C1      NOp   1
                         Standard orientation:                         
 ---------------------------------------------------------------------
 Center     Atomic      Atomic             Coordinates (Angstroms)
 Number     Number       Type             X           Y           Z
 ---------------------------------------------------------------------
      1          1           0       -3.234543   -1.160874   -0.586615
      2          6           0       -2.237817   -0.728124   -0.704576
      3          6           0       -1.624830   -0.352940    0.643967
      4          1           0       -2.346090    0.144317   -1.356066
      5          1           0       -1.619636   -1.459452   -1.231093
      6          1           0       -2.259451    0.373823    1.163075
      7         14           0        0.090308    0.360877    0.539112
      8          1           0       -1.574920   -1.232693    1.294360
      9          8           0        0.164552    1.892900   -0.459029
     10          8           0        1.029974   -0.827308   -0.095956
     11          1           0        0.628908    0.783023    1.857621
     12          1           0       -0.188158    1.859079   -1.348844
     13          6           0        2.423768   -0.717066   -0.265778
     14          1           0        2.801775   -1.671236   -0.637078
     15          1           0        2.926264   -0.489584    0.682120
     16          1           0        2.678607    0.065364   -0.986853
 ---------------------------------------------------------------------
 Rotational constants (GHZ):      3.7279261      1.8870766      1.5376020
 Standard basis: def2TZVP (5D, 7F)
 There are   252 symmetry adapted basis functions of A   symmetry.
 Integral buffers will be    131072 words long.
 Raffenetti 2 integral format.
 Two-electron integral symmetry is turned on.
   252 basis functions,   404 primitive gaussians,   282 cartesian basis functions
    29 alpha electrons       29 beta electrons
       nuclear repulsion energy       323.6773266833 Hartrees.
 NAtoms=   16 NActive=   16 NUniq=   16 SFac= 1.00D+00 NAtFMM=   60 NAOKFM=F Big=F
 One-electron integrals computed using PRISM.
   1 Symmetry operations used in ECPInt.
 ECPInt:  NShTT=    5886 NPrTT=   17754 LenC2=    5774 LenP2D=   13870.
 LDataN:  DoStor=T MaxTD1= 6 Len=  172
 NBasis=   252 RedAO= T  NBF=   252
 NBsUse=   252 1.00D-06 NBFU=   252
 Harris functional with IExCor= 1009 diagonalized for initial guess.
 ExpMin= 7.01D-02 ExpMax= 4.48D+04 ExpMxC= 1.53D+03 IAcc=2 IRadAn=         4 AccDes= 0.00D+00
 HarFok:  IExCor= 1009 AccDes= 0.00D+00 IRadAn=         4 IDoV= 1
 ScaDFX=  1.000000  1.000000  1.000000  1.000000
 FoFCou: FMM=F IPFlag=           0 FMFlag=      100000 FMFlg1=           0
         NFxFlg=           0 DoJE=T BraDBF=F KetDBF=T FulRan=T
         Omega=  0.000000  0.000000  1.000000  0.000000  0.000000 ICntrl=     500 IOpCl=  0
         NMat0=    1 NMatS0=    1 NMatT0=    0 NMatD0=    1 NMtDS0=    0 NMtDT0=    0
         I1Cent=           4 NGrid=           0.
 Petite list used in FoFCou.
 Initial guess orbital symmetries:
       Occupied  (A) (A) (A) (A) (A) (A) (A) (A) (A) (A) (A) (A)
                 (A) (A) (A) (A) (A) (A) (A) (A) (A) (A) (A) (A)
                 (A) (A) (A) (A) (A)
       Virtual   (A) (A) (A) (A) (A) (A) (A) (A) (A) (A) (A) (A)
                 (A) (A) (A) (A) (A) (A) (A) (A) (A) (A) (A) (A)
                 (A) (A) (A) (A) (A) (A) (A) (A) (A) (A) (A) (A)
                 (A) (A) (A) (A) (A) (A) (A) (A) (A) (A) (A) (A)
                 (A) (A) (A) (A) (A) (A) (A) (A) (A) (A) (A) (A)
                 (A) (A) (A) (A) (A) (A) (A) (A) (A) (A) (A) (A)
                 (A) (A) (A) (A) (A) (A) (A) (A) (A) (A) (A) (A)
                 (A) (A) (A) (A) (A) (A) (A) (A) (A) (A) (A) (A)
                 (A) (A) (A) (A) (A) (A) (A) (A) (A) (A) (A) (A)
                 (A) (A) (A) (A) (A) (A) (A) (A) (A) (A) (A) (A)
                 (A) (A) (A) (A) (A) (A) (A) (A) (A) (A) (A) (A)
                 (A) (A) (A) (A) (A) (A) (A) (A) (A) (A) (A) (A)
                 (A) (A) (A) (A) (A) (A) (A) (A) (A) (A) (A) (A)
                 (A) (A) (A) (A) (A) (A) (A) (A) (A) (A) (A) (A)
                 (A) (A) (A) (A) (A) (A) (A) (A) (A) (A) (A) (A)
                 (A) (A) (A) (A) (A) (A) (A) (A) (A) (A) (A) (A)
                 (A) (A) (A) (A) (A) (A) (A) (A) (A) (A) (A) (A)
                 (A) (A) (A) (A) (A) (A) (A) (A) (A) (A) (A) (A)
                 (A) (A) (A) (A) (A) (A) (A)
 The electronic state of the initial guess is 1-A.
 Requested convergence on RMS density matrix=1.00D-08 within 128 cycles.
 Requested convergence on MAX density matrix=1.00D-06.
 Requested convergence on             energy=1.00D-06.
 No special actions if energy rises.
 Integral accuracy reduced to 1.0D-05 until final iterations.
 Initial convergence to 1.0D-05 achieved.  Increase integral accuracy.
 SCF Done:  E(RPBE1PBE) =  -560.047551721     A.U. after   13 cycles
             Convg  =    0.5247D-08             -V/T =  2.0037

 **********************************************************************

            Population analysis using the SCF density.

 **********************************************************************

 Orbital symmetries:
       Occupied  (A) (A) (A) (A) (A) (A) (A) (A) (A) (A) (A) (A)
                 (A) (A) (A) (A) (A) (A) (A) (A) (A) (A) (A) (A)
                 (A) (A) (A) (A) (A)
       Virtual   (A) (A) (A) (A) (A) (A) (A) (A) (A) (A) (A) (A)
                 (A) (A) (A) (A) (A) (A) (A) (A) (A) (A) (A) (A)
                 (A) (A) (A) (A) (A) (A) (A) (A) (A) (A) (A) (A)
                 (A) (A) (A) (A) (A) (A) (A) (A) (A) (A) (A) (A)
                 (A) (A) (A) (A) (A) (A) (A) (A) (A) (A) (A) (A)
                 (A) (A) (A) (A) (A) (A) (A) (A) (A) (A) (A) (A)
                 (A) (A) (A) (A) (A) (A) (A) (A) (A) (A) (A) (A)
                 (A) (A) (A) (A) (A) (A) (A) (A) (A) (A) (A) (A)
                 (A) (A) (A) (A) (A) (A) (A) (A) (A) (A) (A) (A)
                 (A) (A) (A) (A) (A) (A) (A) (A) (A) (A) (A) (A)
                 (A) (A) (A) (A) (A) (A) (A) (A) (A) (A) (A) (A)
                 (A) (A) (A) (A) (A) (A) (A) (A) (A) (A) (A) (A)
                 (A) (A) (A) (A) (A) (A) (A) (A) (A) (A) (A) (A)
                 (A) (A) (A) (A) (A) (A) (A) (A) (A) (A) (A) (A)
                 (A) (A) (A) (A) (A) (A) (A) (A) (A) (A) (A) (A)
                 (A) (A) (A) (A) (A) (A) (A) (A) (A) (A) (A) (A)
                 (A) (A) (A) (A) (A) (A) (A) (A) (A) (A) (A) (A)
                 (A) (A) (A) (A) (A) (A) (A) (A) (A) (A) (A) (A)
                 (A) (A) (A) (A) (A) (A) (A)
 The electronic state is 1-A.
 Alpha  occ. eigenvalues --  -66.27358 -19.20883 -19.19007 -10.26780 -10.21921
 Alpha  occ. eigenvalues --  -10.21602  -5.34704  -3.68236  -3.68130  -3.67968
 Alpha  occ. eigenvalues --   -1.04679  -0.98896  -0.78613  -0.70951  -0.64419
 Alpha  occ. eigenvalues --   -0.55141  -0.50032  -0.47228  -0.46931  -0.46066
 Alpha  occ. eigenvalues --   -0.43852  -0.41562  -0.38163  -0.36786  -0.36112
 Alpha  occ. eigenvalues --   -0.34212  -0.31658  -0.30725  -0.30138
 Alpha virt. eigenvalues --    0.02085   0.04814   0.05602   0.07683   0.08806
 Alpha virt. eigenvalues --    0.09658   0.10214   0.10792   0.12071   0.13056
 Alpha virt. eigenvalues --    0.13456   0.14872   0.15434   0.15977   0.18930
 Alpha virt. eigenvalues --    0.20933   0.21755   0.22879   0.24252   0.24818
 Alpha virt. eigenvalues --    0.26538   0.26940   0.28615   0.29591   0.30672
 Alpha virt. eigenvalues --    0.32392   0.36537   0.39096   0.39923   0.40563
 Alpha virt. eigenvalues --    0.41739   0.42305   0.43860   0.44989   0.45403
 Alpha virt. eigenvalues --    0.45845   0.47253   0.47770   0.49332   0.49762
 Alpha virt. eigenvalues --    0.50453   0.53225   0.55296   0.56553   0.60555
 Alpha virt. eigenvalues --    0.60706   0.62535   0.63918   0.65614   0.68117
 Alpha virt. eigenvalues --    0.72737   0.73796   0.74263   0.76826   0.79881
 Alpha virt. eigenvalues --    0.81822   0.83472   0.86094   0.87528   0.91630
 Alpha virt. eigenvalues --    0.93076   0.95040   0.96182   0.98919   1.00656
 Alpha virt. eigenvalues --    1.02894   1.05125   1.06567   1.08227   1.11219
 Alpha virt. eigenvalues --    1.11870   1.12944   1.14921   1.18223   1.19501
 Alpha virt. eigenvalues --    1.23479   1.26979   1.32076   1.35827   1.40276
 Alpha virt. eigenvalues --    1.40999   1.45475   1.46497   1.50128   1.51941
 Alpha virt. eigenvalues --    1.53063   1.54107   1.54675   1.55740   1.57458
 Alpha virt. eigenvalues --    1.59220   1.61210   1.62513   1.62934   1.64739
 Alpha virt. eigenvalues --    1.66852   1.69580   1.73600   1.75872   1.78061
 Alpha virt. eigenvalues --    1.80171   1.82733   1.86294   1.89415   1.90474
 Alpha virt. eigenvalues --    1.93925   1.94819   1.98355   1.98965   2.01352
 Alpha virt. eigenvalues --    2.03107   2.06685   2.08519   2.11956   2.13209
 Alpha virt. eigenvalues --    2.16238   2.17303   2.25596   2.27188   2.29508
 Alpha virt. eigenvalues --    2.30395   2.31285   2.32702   2.34819   2.35285
 Alpha virt. eigenvalues --    2.35493   2.39523   2.42389   2.46353   2.48183
 Alpha virt. eigenvalues --    2.50508   2.50851   2.54270   2.55804   2.57912
 Alpha virt. eigenvalues --    2.58989   2.60897   2.64334   2.66552   2.70169
 Alpha virt. eigenvalues --    2.72054   2.75491   2.78793   2.80283   2.82527
 Alpha virt. eigenvalues --    2.83655   2.91868   2.92694   2.97873   2.99542
 Alpha virt. eigenvalues --    3.04057   3.08289   3.09419   3.11060   3.14435
 Alpha virt. eigenvalues --    3.19089   3.22019   3.22476   3.25892   3.29474
 Alpha virt. eigenvalues --    3.31140   3.32275   3.35488   3.38806   3.39978
 Alpha virt. eigenvalues --    3.44065   3.45366   3.45720   3.52412   3.53482
 Alpha virt. eigenvalues --    3.57557   3.59326   3.61819   3.64643   3.76253
 Alpha virt. eigenvalues --    3.80775   3.83713   3.92042   3.95265   4.02407
 Alpha virt. eigenvalues --    4.18590   4.23798   4.24446   4.33848   4.36506
 Alpha virt. eigenvalues --    4.41404   4.46448   4.52937   4.56508   4.78220
 Alpha virt. eigenvalues --    5.12962   5.17299   5.17703   5.18549   5.24619
 Alpha virt. eigenvalues --    5.28417   5.37266   5.40683   5.45539   5.51123
 Alpha virt. eigenvalues --    5.78807   5.85586   6.02813   6.21962   6.35359
 Alpha virt. eigenvalues --    6.40199   6.50052   6.54575   6.56017   6.59579
 Alpha virt. eigenvalues --    6.60844   6.76138   6.80433   6.89932   7.04503
 Alpha virt. eigenvalues --    7.11710   7.18175  11.65621  22.36722  22.40510
 Alpha virt. eigenvalues --   22.44478  43.53411  43.93167
          Condensed to atoms (all electrons):
              1          2          3          4          5          6
     1  H    0.552403   0.406483  -0.033817  -0.025078  -0.024894  -0.006894
     2  C    0.406483   4.942615   0.319516   0.398823   0.411735  -0.026382
     3  C   -0.033817   0.319516   5.004034  -0.042849  -0.038238   0.388742
     4  H   -0.025078   0.398823  -0.042849   0.574969  -0.025948  -0.004970
     5  H   -0.024894   0.411735  -0.038238  -0.025948   0.534574   0.007567
     6  H   -0.006894  -0.026382   0.388742  -0.004970   0.007567   0.572845
     7  Si   0.008243  -0.023801   0.416340  -0.003077  -0.009612  -0.030442
     8  H   -0.006554  -0.029687   0.371727   0.008767  -0.004069  -0.027294
     9  O    0.000046  -0.005160  -0.029188   0.005704  -0.000330  -0.000729
    10  O    0.000027  -0.005236  -0.030481   0.000378   0.007687   0.001334
    11  H   -0.000119   0.001513  -0.033081   0.000209   0.000382   0.001076
    12  H   -0.000050  -0.000381  -0.001487   0.001708  -0.000020   0.000033
    13  C    0.000013  -0.000201   0.001567   0.000132   0.000004  -0.000124
    14  H   -0.000004   0.000228  -0.000393  -0.000005  -0.000164   0.000000
    15  H    0.000001  -0.000050   0.000050  -0.000002   0.000080   0.000003
    16  H    0.000000  -0.000085   0.000751  -0.000022  -0.000004   0.000014
              7          8          9         10         11         12
     1  H    0.008243  -0.006554   0.000046   0.000027  -0.000119  -0.000050
     2  C   -0.023801  -0.029687  -0.005160  -0.005236   0.001513  -0.000381
     3  C    0.416340   0.371727  -0.029188  -0.030481  -0.033081  -0.001487
     4  H   -0.003077   0.008767   0.005704   0.000378   0.000209   0.001708
     5  H   -0.009612  -0.004069  -0.000330   0.007687   0.000382  -0.000020
     6  H   -0.030442  -0.027294  -0.000729   0.001334   0.001076   0.000033
     7  Si  11.937868  -0.013001   0.404737   0.446710   0.390944  -0.024118
     8  H   -0.013001   0.575000   0.001566   0.001766   0.000835  -0.000074
     9  O    0.404737   0.001566   7.977993  -0.026545  -0.013750   0.290728
    10  O    0.446710   0.001766  -0.026545   7.825960  -0.025045  -0.000507
    11  H    0.390944   0.000835  -0.013750  -0.025045   0.711064   0.002941
    12  H   -0.024118  -0.000074   0.290728  -0.000507   0.002941   0.418917
    13  C   -0.052383   0.000121  -0.007114   0.260439   0.002466   0.000451
    14  H    0.008370   0.000000   0.000140  -0.040621  -0.000212   0.000015
    15  H   -0.017579  -0.000025  -0.000359  -0.042137   0.009372   0.000014
    16  H   -0.003077  -0.000018   0.007182  -0.042435  -0.001761   0.000103
             13         14         15         16
     1  H    0.000013  -0.000004   0.000001   0.000000
     2  C   -0.000201   0.000228  -0.000050  -0.000085
     3  C    0.001567  -0.000393   0.000050   0.000751
     4  H    0.000132  -0.000005  -0.000002  -0.000022
     5  H    0.000004  -0.000164   0.000080  -0.000004
     6  H   -0.000124   0.000000   0.000003   0.000014
     7  Si  -0.052383   0.008370  -0.017579  -0.003077
     8  H    0.000121   0.000000  -0.000025  -0.000018
     9  O   -0.007114   0.000140  -0.000359   0.007182
    10  O    0.260439  -0.040621  -0.042137  -0.042435
    11  H    0.002466  -0.000212   0.009372  -0.001761
    12  H    0.000451   0.000015   0.000014   0.000103
    13  C    4.777792   0.400171   0.417750   0.412041
    14  H    0.400171   0.565283  -0.030363  -0.032208
    15  H    0.417750  -0.030363   0.591064  -0.045799
    16  H    0.412041  -0.032208  -0.045799   0.578237
 Mulliken atomic charges:
              1
     1  H    0.130195
     2  C   -0.389929
     3  C   -0.293194
     4  H    0.111262
     5  H    0.141250
     6  H    0.125220
     7  Si   0.563880
     8  H    0.120939
     9  O   -0.604921
    10  O   -0.331292
    11  H   -0.046835
    12  H    0.311727
    13  C   -0.213126
    14  H    0.129764
    15  H    0.117980
    16  H    0.127080
 Sum of Mulliken atomic charges =   0.00000
 Mulliken charges with hydrogens summed into heavy atoms:
              1
     2  C   -0.007221
     3  C   -0.047036
     7  Si   0.517045
     9  O   -0.293194
    10  O   -0.331292
    13  C    0.161697
 Sum of Mulliken charges with hydrogens summed into heavy atoms =   0.00000
 Electronic spatial extent (au):  <R**2>=            888.5903
 Charge=              0.0000 electrons
 Dipole moment (field-independent basis, Debye):
    X=             -0.3035    Y=             -1.1764    Z=             -0.5115  Tot=              1.3182
 Quadrupole moment (field-independent basis, Debye-Ang):
   XX=            -40.6663   YY=            -50.4673   ZZ=            -42.7905
   XY=             -1.8199   XZ=             -0.2565   YZ=             -1.8426
 Traceless Quadrupole moment (field-independent basis, Debye-Ang):
   XX=              3.9751   YY=             -5.8260   ZZ=              1.8509
   XY=             -1.8199   XZ=             -0.2565   YZ=             -1.8426
 Octapole moment (field-independent basis, Debye-Ang**2):
  XXX=             14.3003  YYY=             -9.7266  ZZZ=             -9.0267  XYY=             -1.5911
  XXY=             -2.7985  XXZ=             -1.4052  XZZ=              0.8041  YZZ=              5.4853
  YYZ=             -4.4199  XYZ=              2.0728
 Hexadecapole moment (field-independent basis, Debye-Ang**3):
 XXXX=           -699.0276 YYYY=           -319.9742 ZZZZ=           -174.1571 XXXY=            -12.4040
 XXXZ=             -7.7172 YYYX=            -13.1207 YYYZ=            -10.0003 ZZZX=             -3.2773
 ZZZY=            -17.2969 XXYY=           -165.9921 XXZZ=           -150.5300 YYZZ=            -66.7383
 XXYZ=              0.1358 YYXZ=             -1.0960 ZZXY=             -5.0055
 N-N= 3.236773266833D+02 E-N=-1.971011700945D+03  KE= 5.579800407353D+02
 1\1\GINC-TARSUS2\SP\RPBE1PBE\def2TZVP\C3H10O2Si1\RENATO\10-Aug-2018\0\
 \#SP PBE1PBE/Def2TZVP geom=connectivity\\Structure: 264\\0,1\H,0,0.,0.
 ,0.\C,0,1.093,0.,0.\C,0,1.655,1.421,0.\H,0,1.41,-0.56,-0.885\H,0,1.424
 ,-0.557,0.88\H,0,1.308,1.969,-0.883\Si,0,3.513,1.515,0.035\H,0,1.282,1
 .975,0.868\O,0,4.295,0.695,-1.402\O,0,3.968,0.824,1.454\H,0,4.029,2.90
 6,-0.04\H,0,4.056,-0.216,-1.576\C,0,5.301,0.766,1.905\H,0,5.308,0.322,
 2.902\H,0,5.747,1.766,1.967\H,0,5.921,0.153,1.244\\Version=EM64L-G09Re
 vC.01\State=1-A\HF=-560.0475517\RMSD=5.247e-09\Dipole=-0.2704343,-0.25
 77347,0.3597298\Quadrupole=0.9722438,0.978859,-1.9511028,-1.0044134,3.
 3751197,1.7841743\PG=C01 [X(C3H10O2Si1)]\\@


 ABOVE ALL I AM AN OPTIMIST FOR NUMBER THEORY,
 AND I HOLD THE HOPE THAT WE MAY NOT BE FAR FROM
 A TIME WHEN IRREFUTABLE ARITHMETIC WILL CELEBRATE
 ITS TRIUMPHS IN PHYSICS AND CHEMISTRY.
   -- HERMANN MINKOWSKI, 1905
 Job cpu time:  0 days  0 hours 13 minutes 43.4 seconds.
 File lengths (MBytes):  RWF=     40 Int=      0 D2E=      0 Chk=      3 Scr=      1
 Normal termination of Gaussian 09 at Fri Aug 10 01:24:20 2018.
