 Entering Gaussian System, Link 0=g09
 Initial command:
 /usr/local/gaussian09/g09/l1.exe /scratch/renato/Gau-7233.inp -scrdir=/scratch/renato/
 Entering Link 1 = /usr/local/gaussian09/g09/l1.exe PID=      7235.
  
 Copyright (c) 1988,1990,1992,1993,1995,1998,2003,2009,2011,
            Gaussian, Inc.  All Rights Reserved.
  
 This is part of the Gaussian(R) 09 program.  It is based on
 the Gaussian(R) 03 system (copyright 2003, Gaussian, Inc.),
 the Gaussian(R) 98 system (copyright 1998, Gaussian, Inc.),
 the Gaussian(R) 94 system (copyright 1995, Gaussian, Inc.),
 the Gaussian 92(TM) system (copyright 1992, Gaussian, Inc.),
 the Gaussian 90(TM) system (copyright 1990, Gaussian, Inc.),
 the Gaussian 88(TM) system (copyright 1988, Gaussian, Inc.),
 the Gaussian 86(TM) system (copyright 1986, Carnegie Mellon
 University), and the Gaussian 82(TM) system (copyright 1983,
 Carnegie Mellon University). Gaussian is a federally registered
 trademark of Gaussian, Inc.
  
 This software contains proprietary and confidential information,
 including trade secrets, belonging to Gaussian, Inc.
  
 This software is provided under written license and may be
 used, copied, transmitted, or stored only in accord with that
 written license.
  
 The following legend is applicable only to US Government
 contracts under FAR:
  
                    RESTRICTED RIGHTS LEGEND
  
 Use, reproduction and disclosure by the US Government is
 subject to restrictions as set forth in subparagraphs (a)
 and (c) of the Commercial Computer Software - Restricted
 Rights clause in FAR 52.227-19.
  
 Gaussian, Inc.
 340 Quinnipiac St., Bldg. 40, Wallingford CT 06492
  
  
 ---------------------------------------------------------------
 Warning -- This program may not be used in any manner that
 competes with the business of Gaussian, Inc. or will provide
 assistance to any competitor of Gaussian, Inc.  The licensee
 of this program is prohibited from giving any competitor of
 Gaussian, Inc. access to this program.  By using this program,
 the user acknowledges that Gaussian, Inc. is engaged in the
 business of creating and licensing software in the field of
 computational chemistry and represents and warrants to the
 licensee that it is not a competitor of Gaussian, Inc. and that
 it will not use this program in any manner prohibited above.
 ---------------------------------------------------------------
  

 Cite this work as:
 Gaussian 09, Revision C.01,
 M. J. Frisch, G. W. Trucks, H. B. Schlegel, G. E. Scuseria, 
 M. A. Robb, J. R. Cheeseman, G. Scalmani, V. Barone, B. Mennucci, 
 G. A. Petersson, H. Nakatsuji, M. Caricato, X. Li, H. P. Hratchian, 
 A. F. Izmaylov, J. Bloino, G. Zheng, J. L. Sonnenberg, M. Hada, 
 M. Ehara, K. Toyota, R. Fukuda, J. Hasegawa, M. Ishida, T. Nakajima, 
 Y. Honda, O. Kitao, H. Nakai, T. Vreven, J. A. Montgomery, Jr., 
 J. E. Peralta, F. Ogliaro, M. Bearpark, J. J. Heyd, E. Brothers, 
 K. N. Kudin, V. N. Staroverov, T. Keith, R. Kobayashi, J. Normand, 
 K. Raghavachari, A. Rendell, J. C. Burant, S. S. Iyengar, J. Tomasi, 
 M. Cossi, N. Rega, J. M. Millam, M. Klene, J. E. Knox, J. B. Cross, 
 V. Bakken, C. Adamo, J. Jaramillo, R. Gomperts, R. E. Stratmann, 
 O. Yazyev, A. J. Austin, R. Cammi, C. Pomelli, J. W. Ochterski, 
 R. L. Martin, K. Morokuma, V. G. Zakrzewski, G. A. Voth, 
 P. Salvador, J. J. Dannenberg, S. Dapprich, A. D. Daniels, 
 O. Farkas, J. B. Foresman, J. V. Ortiz, J. Cioslowski, 
 and D. J. Fox, Gaussian, Inc., Wallingford CT, 2010.
 
 ******************************************
 Gaussian 09:  EM64L-G09RevC.01 23-Sep-2011
                 9-Aug-2018 
 ******************************************
 %nproc=2
 Will use up to    2 processors via shared memory.
 %mem=256MB
 %RWF=bm3.rwf
 %chk=bm3247
 %NoSave
 --------------------------------------
 #SP PBE1PBE/Def2TZVP geom=connectivity
 --------------------------------------
 1/38=1,57=2/1;
 2/12=2,17=6,18=5,40=1/2;
 3/5=44,7=101,11=2,16=1,25=1,30=1,74=-13/1,2,3;
 4//1;
 5/5=2,38=5/2;
 6/7=2,8=2,9=2,10=2,28=1/1;
 99/5=1,9=1/99;
 --------------
 Structure: 247
 --------------
 Charge =  0 Multiplicity = 1
 Symbolic Z-Matrix:
 H                     0.        0.        0. 
 C                     1.093     0.        0. 
 C                     1.655     1.421     0. 
 H                     1.41     -0.56     -0.885 
 H                     1.424    -0.557     0.88 
 H                     1.308     1.969    -0.883 
 Si                    3.513     1.515     0.035 
 H                     1.282     1.975     0.868 
 O                     4.281     0.711    -1.375 
 O                     3.968     0.824     1.454 
 H                     4.029     2.906    -0.04 
 H                     4.042    -0.201    -1.549 
 C                     5.301     0.766     1.905 
 H                     5.308     0.322     2.902 
 H                     5.747     1.766     1.967 
 H                     5.921     0.153     1.244 
 
                          Input orientation:                          
 ---------------------------------------------------------------------
 Center     Atomic      Atomic             Coordinates (Angstroms)
 Number     Number       Type             X           Y           Z
 ---------------------------------------------------------------------
      1          1           0        0.000000    0.000000    0.000000
      2          6           0        1.093000    0.000000    0.000000
      3          6           0        1.655000    1.421000    0.000000
      4          1           0        1.410000   -0.560000   -0.885000
      5          1           0        1.424000   -0.557000    0.880000
      6          1           0        1.308000    1.969000   -0.883000
      7         14           0        3.513000    1.515000    0.035000
      8          1           0        1.282000    1.975000    0.868000
      9          8           0        4.281000    0.711000   -1.375000
     10          8           0        3.968000    0.824000    1.454000
     11          1           0        4.029000    2.906000   -0.040000
     12          1           0        4.042000   -0.201000   -1.549000
     13          6           0        5.301000    0.766000    1.905000
     14          1           0        5.308000    0.322000    2.902000
     15          1           0        5.747000    1.766000    1.967000
     16          1           0        5.921000    0.153000    1.244000
 ---------------------------------------------------------------------
                    Distance matrix (angstroms):
                    1          2          3          4          5
     1  H    0.000000
     2  C    1.093000   0.000000
     3  C    2.181345   1.528098   0.000000
     4  H    1.756395   1.094218   2.183486   0.000000
     5  H    1.764207   1.092799   2.177210   1.765058   0.000000
     6  H    2.523393   2.168611   1.095629   2.531057   3.082580
     7  Si   3.825914   2.855320   1.860706   3.094291   3.061230
     8  H    2.509497   2.165588   1.095203   3.084740   2.536007
     9  O    4.552264   3.543937   3.048049   3.177764   3.854257
    10  O    4.305591   3.325465   2.796515   3.732257   2.951029
    11  H    4.967824   4.131166   2.800482   4.425646   4.429988
    12  H    4.333309   3.337125   3.275371   2.738102   3.588969
    13  C    5.684750   4.682205   4.165497   4.968124   4.222805
    14  H    6.058065   5.127525   4.793101   5.505788   4.466160
    15  H    6.325809   5.352342   4.553304   5.688036   5.026552
    16  H    6.052205   4.988039   4.621051   5.038862   4.567232
                    6          7          8          9         10
     6  H    0.000000
     7  Si   2.431227   0.000000
     8  H    1.751203   2.425459   0.000000
     9  O    3.265480   1.795645   3.952562   0.000000
    10  O    3.721316   1.642579   2.980401   2.848505   0.000000
    11  H    2.998743   1.485517   3.039282   2.581425   2.563295
    12  H    3.553479   2.394484   4.265497   0.958718   3.173974
    13  C    5.016393   2.693482   4.323125   3.435378   1.408423
    14  H    5.747942   3.586776   4.803982   4.415742   2.035757
    15  H    5.279056   2.964183   4.603011   3.798835   2.077348
    16  H    5.394604   3.019137   4.998138   3.140084   2.075705
                   11         12         13         14         15
    11  H    0.000000
    12  H    3.454084   0.000000
    13  C    3.159210   3.801353   0.000000
    14  H    4.119255   4.657004   1.091418   0.000000
    15  H    2.877355   4.374742   1.096704   1.775410   0.000000
    16  H    3.578733   3.384790   1.094116   1.775752   1.776168
                   16
    16  H    0.000000
 Stoichiometry    C3H10O2Si
 Framework group  C1[X(C3H10O2Si)]
 Deg. of freedom    42
 Full point group                 C1      NOp   1
 Largest Abelian subgroup         C1      NOp   1
 Largest concise Abelian subgroup C1      NOp   1
                         Standard orientation:                         
 ---------------------------------------------------------------------
 Center     Atomic      Atomic             Coordinates (Angstroms)
 Number     Number       Type             X           Y           Z
 ---------------------------------------------------------------------
      1          1           0       -3.233964   -1.167434   -0.570193
      2          6           0       -2.237487   -0.736125   -0.695319
      3          6           0       -1.624396   -0.339011    0.646882
      4          1           0       -2.346353    0.125680   -1.360716
      5          1           0       -1.619045   -1.475503   -1.210159
      6          1           0       -2.259277    0.395674    1.154392
      7         14           0        0.090351    0.373906    0.530181
      8          1           0       -1.573890   -1.208176    1.311315
      9          8           0        0.162884    1.861598   -0.472740
     10          8           0        1.030489   -0.823848   -0.085931
     11          1           0        0.629025    0.817456    1.841614
     12          1           0       -0.190075    1.813182   -1.362806
     13          6           0        2.424188   -0.715637   -0.257820
     14          1           0        2.802605   -1.675455   -0.613830
     15          1           0        2.926776   -0.472698    0.686185
     16          1           0        2.678465    0.055238   -0.991432
 ---------------------------------------------------------------------
 Rotational constants (GHZ):      3.7873757      1.8893790      1.5460978
 Standard basis: def2TZVP (5D, 7F)
 There are   252 symmetry adapted basis functions of A   symmetry.
 Integral buffers will be    131072 words long.
 Raffenetti 2 integral format.
 Two-electron integral symmetry is turned on.
   252 basis functions,   404 primitive gaussians,   282 cartesian basis functions
    29 alpha electrons       29 beta electrons
       nuclear repulsion energy       324.7250492252 Hartrees.
 NAtoms=   16 NActive=   16 NUniq=   16 SFac= 1.00D+00 NAtFMM=   60 NAOKFM=F Big=F
 One-electron integrals computed using PRISM.
   1 Symmetry operations used in ECPInt.
 ECPInt:  NShTT=    5886 NPrTT=   17754 LenC2=    5777 LenP2D=   13881.
 LDataN:  DoStor=T MaxTD1= 6 Len=  172
 NBasis=   252 RedAO= T  NBF=   252
 NBsUse=   252 1.00D-06 NBFU=   252
 Harris functional with IExCor= 1009 diagonalized for initial guess.
 ExpMin= 7.01D-02 ExpMax= 4.48D+04 ExpMxC= 1.53D+03 IAcc=2 IRadAn=         4 AccDes= 0.00D+00
 HarFok:  IExCor= 1009 AccDes= 0.00D+00 IRadAn=         4 IDoV= 1
 ScaDFX=  1.000000  1.000000  1.000000  1.000000
 FoFCou: FMM=F IPFlag=           0 FMFlag=      100000 FMFlg1=           0
         NFxFlg=           0 DoJE=T BraDBF=F KetDBF=T FulRan=T
         Omega=  0.000000  0.000000  1.000000  0.000000  0.000000 ICntrl=     500 IOpCl=  0
         NMat0=    1 NMatS0=    1 NMatT0=    0 NMatD0=    1 NMtDS0=    0 NMtDT0=    0
         I1Cent=           4 NGrid=           0.
 Petite list used in FoFCou.
 Initial guess orbital symmetries:
       Occupied  (A) (A) (A) (A) (A) (A) (A) (A) (A) (A) (A) (A)
                 (A) (A) (A) (A) (A) (A) (A) (A) (A) (A) (A) (A)
                 (A) (A) (A) (A) (A)
       Virtual   (A) (A) (A) (A) (A) (A) (A) (A) (A) (A) (A) (A)
                 (A) (A) (A) (A) (A) (A) (A) (A) (A) (A) (A) (A)
                 (A) (A) (A) (A) (A) (A) (A) (A) (A) (A) (A) (A)
                 (A) (A) (A) (A) (A) (A) (A) (A) (A) (A) (A) (A)
                 (A) (A) (A) (A) (A) (A) (A) (A) (A) (A) (A) (A)
                 (A) (A) (A) (A) (A) (A) (A) (A) (A) (A) (A) (A)
                 (A) (A) (A) (A) (A) (A) (A) (A) (A) (A) (A) (A)
                 (A) (A) (A) (A) (A) (A) (A) (A) (A) (A) (A) (A)
                 (A) (A) (A) (A) (A) (A) (A) (A) (A) (A) (A) (A)
                 (A) (A) (A) (A) (A) (A) (A) (A) (A) (A) (A) (A)
                 (A) (A) (A) (A) (A) (A) (A) (A) (A) (A) (A) (A)
                 (A) (A) (A) (A) (A) (A) (A) (A) (A) (A) (A) (A)
                 (A) (A) (A) (A) (A) (A) (A) (A) (A) (A) (A) (A)
                 (A) (A) (A) (A) (A) (A) (A) (A) (A) (A) (A) (A)
                 (A) (A) (A) (A) (A) (A) (A) (A) (A) (A) (A) (A)
                 (A) (A) (A) (A) (A) (A) (A) (A) (A) (A) (A) (A)
                 (A) (A) (A) (A) (A) (A) (A) (A) (A) (A) (A) (A)
                 (A) (A) (A) (A) (A) (A) (A) (A) (A) (A) (A) (A)
                 (A) (A) (A) (A) (A) (A) (A)
 The electronic state of the initial guess is 1-A.
 Requested convergence on RMS density matrix=1.00D-08 within 128 cycles.
 Requested convergence on MAX density matrix=1.00D-06.
 Requested convergence on             energy=1.00D-06.
 No special actions if energy rises.
 Integral accuracy reduced to 1.0D-05 until final iterations.
 Initial convergence to 1.0D-05 achieved.  Increase integral accuracy.
 SCF Done:  E(RPBE1PBE) =  -560.051743651     A.U. after   13 cycles
             Convg  =    0.4826D-08             -V/T =  2.0036

 **********************************************************************

            Population analysis using the SCF density.

 **********************************************************************

 Orbital symmetries:
       Occupied  (A) (A) (A) (A) (A) (A) (A) (A) (A) (A) (A) (A)
                 (A) (A) (A) (A) (A) (A) (A) (A) (A) (A) (A) (A)
                 (A) (A) (A) (A) (A)
       Virtual   (A) (A) (A) (A) (A) (A) (A) (A) (A) (A) (A) (A)
                 (A) (A) (A) (A) (A) (A) (A) (A) (A) (A) (A) (A)
                 (A) (A) (A) (A) (A) (A) (A) (A) (A) (A) (A) (A)
                 (A) (A) (A) (A) (A) (A) (A) (A) (A) (A) (A) (A)
                 (A) (A) (A) (A) (A) (A) (A) (A) (A) (A) (A) (A)
                 (A) (A) (A) (A) (A) (A) (A) (A) (A) (A) (A) (A)
                 (A) (A) (A) (A) (A) (A) (A) (A) (A) (A) (A) (A)
                 (A) (A) (A) (A) (A) (A) (A) (A) (A) (A) (A) (A)
                 (A) (A) (A) (A) (A) (A) (A) (A) (A) (A) (A) (A)
                 (A) (A) (A) (A) (A) (A) (A) (A) (A) (A) (A) (A)
                 (A) (A) (A) (A) (A) (A) (A) (A) (A) (A) (A) (A)
                 (A) (A) (A) (A) (A) (A) (A) (A) (A) (A) (A) (A)
                 (A) (A) (A) (A) (A) (A) (A) (A) (A) (A) (A) (A)
                 (A) (A) (A) (A) (A) (A) (A) (A) (A) (A) (A) (A)
                 (A) (A) (A) (A) (A) (A) (A) (A) (A) (A) (A) (A)
                 (A) (A) (A) (A) (A) (A) (A) (A) (A) (A) (A) (A)
                 (A) (A) (A) (A) (A) (A) (A) (A) (A) (A) (A) (A)
                 (A) (A) (A) (A) (A) (A) (A) (A) (A) (A) (A) (A)
                 (A) (A) (A) (A) (A) (A) (A)
 The electronic state is 1-A.
 Alpha  occ. eigenvalues --  -66.27021 -19.20719 -19.19269 -10.26715 -10.21884
 Alpha  occ. eigenvalues --  -10.21467  -5.34407  -3.67936  -3.67832  -3.67675
 Alpha  occ. eigenvalues --   -1.04569  -0.99509  -0.78536  -0.70868  -0.64347
 Alpha  occ. eigenvalues --   -0.55293  -0.50319  -0.47153  -0.46869  -0.46045
 Alpha  occ. eigenvalues --   -0.43796  -0.41451  -0.38133  -0.36875  -0.36308
 Alpha  occ. eigenvalues --   -0.34379  -0.31770  -0.30704  -0.30111
 Alpha virt. eigenvalues --    0.02168   0.04969   0.05695   0.07747   0.08842
 Alpha virt. eigenvalues --    0.09810   0.10341   0.10897   0.12119   0.13191
 Alpha virt. eigenvalues --    0.13503   0.14973   0.15536   0.16058   0.18997
 Alpha virt. eigenvalues --    0.21020   0.21815   0.23006   0.24325   0.24856
 Alpha virt. eigenvalues --    0.26579   0.27243   0.28628   0.29571   0.30768
 Alpha virt. eigenvalues --    0.32453   0.36567   0.39176   0.39927   0.40549
 Alpha virt. eigenvalues --    0.41769   0.42337   0.43910   0.45077   0.45396
 Alpha virt. eigenvalues --    0.45916   0.47293   0.47785   0.49525   0.49861
 Alpha virt. eigenvalues --    0.50525   0.53248   0.55320   0.56591   0.60473
 Alpha virt. eigenvalues --    0.60718   0.62614   0.64224   0.65691   0.68099
 Alpha virt. eigenvalues --    0.73013   0.73911   0.74440   0.77023   0.80065
 Alpha virt. eigenvalues --    0.82042   0.83545   0.86154   0.87608   0.91679
 Alpha virt. eigenvalues --    0.93053   0.95166   0.96298   0.99000   1.00659
 Alpha virt. eigenvalues --    1.03180   1.05495   1.06645   1.08387   1.11309
 Alpha virt. eigenvalues --    1.11964   1.12872   1.15116   1.18289   1.19884
 Alpha virt. eigenvalues --    1.23746   1.27143   1.32089   1.35950   1.40439
 Alpha virt. eigenvalues --    1.41208   1.45878   1.46512   1.50007   1.52055
 Alpha virt. eigenvalues --    1.53046   1.54171   1.54789   1.55892   1.57518
 Alpha virt. eigenvalues --    1.59300   1.61629   1.62668   1.63001   1.65032
 Alpha virt. eigenvalues --    1.67358   1.69966   1.73797   1.76137   1.78332
 Alpha virt. eigenvalues --    1.80265   1.82821   1.86352   1.89129   1.90647
 Alpha virt. eigenvalues --    1.94301   1.94964   1.98799   1.99215   2.01794
 Alpha virt. eigenvalues --    2.03638   2.06984   2.08880   2.11927   2.13550
 Alpha virt. eigenvalues --    2.16453   2.17494   2.25812   2.27532   2.29643
 Alpha virt. eigenvalues --    2.30915   2.31576   2.32794   2.34900   2.35375
 Alpha virt. eigenvalues --    2.35594   2.39702   2.42640   2.46554   2.48381
 Alpha virt. eigenvalues --    2.50628   2.51000   2.54349   2.55867   2.57985
 Alpha virt. eigenvalues --    2.59091   2.60980   2.64506   2.66609   2.70300
 Alpha virt. eigenvalues --    2.72206   2.75743   2.79272   2.80737   2.82883
 Alpha virt. eigenvalues --    2.84019   2.92130   2.92989   2.98544   2.99625
 Alpha virt. eigenvalues --    3.04461   3.08473   3.09535   3.11151   3.14559
 Alpha virt. eigenvalues --    3.19432   3.22104   3.22605   3.26061   3.29560
 Alpha virt. eigenvalues --    3.31315   3.32357   3.35922   3.39393   3.40125
 Alpha virt. eigenvalues --    3.44151   3.45504   3.45817   3.52603   3.53554
 Alpha virt. eigenvalues --    3.57750   3.59702   3.61912   3.64722   3.76345
 Alpha virt. eigenvalues --    3.80858   3.84090   3.92149   3.95364   4.02542
 Alpha virt. eigenvalues --    4.18688   4.23870   4.24577   4.33922   4.36588
 Alpha virt. eigenvalues --    4.41460   4.46542   4.53031   4.56642   4.78308
 Alpha virt. eigenvalues --    5.13270   5.17025   5.17528   5.18476   5.24967
 Alpha virt. eigenvalues --    5.28686   5.37455   5.40913   5.45383   5.50935
 Alpha virt. eigenvalues --    5.79010   5.85788   6.02968   6.21693   6.36919
 Alpha virt. eigenvalues --    6.40428   6.50623   6.55509   6.56874   6.59926
 Alpha virt. eigenvalues --    6.61752   6.76378   6.80779   6.92080   7.04649
 Alpha virt. eigenvalues --    7.12520   7.18831  11.70521  22.36790  22.40597
 Alpha virt. eigenvalues --   22.44627  43.54845  43.93407
          Condensed to atoms (all electrons):
              1          2          3          4          5          6
     1  H    0.552185   0.406845  -0.033769  -0.025141  -0.024849  -0.006892
     2  C    0.406845   4.941852   0.318693   0.399297   0.411963  -0.026887
     3  C   -0.033769   0.318693   5.008979  -0.043191  -0.038492   0.388502
     4  H   -0.025141   0.399297  -0.043191   0.576924  -0.026256  -0.004969
     5  H   -0.024849   0.411963  -0.038492  -0.026256   0.534416   0.007601
     6  H   -0.006892  -0.026887   0.388502  -0.004969   0.007601   0.573863
     7  Si   0.008148  -0.022955   0.417418  -0.003568  -0.009396  -0.030181
     8  H   -0.006612  -0.029397   0.371505   0.008786  -0.004071  -0.027148
     9  O    0.000039  -0.004811  -0.030804   0.005502  -0.000341  -0.000761
    10  O    0.000025  -0.005201  -0.030720   0.000389   0.007671   0.001326
    11  H   -0.000119   0.001558  -0.033404   0.000209   0.000387   0.001126
    12  H   -0.000056  -0.000266  -0.001607   0.001764  -0.000012   0.000040
    13  C    0.000012  -0.000175   0.001628   0.000125  -0.000009  -0.000124
    14  H   -0.000004   0.000227  -0.000396  -0.000005  -0.000164   0.000000
    15  H    0.000001  -0.000048   0.000036  -0.000002   0.000080   0.000004
    16  H    0.000000  -0.000094   0.000764  -0.000021  -0.000001   0.000014
              7          8          9         10         11         12
     1  H    0.008148  -0.006612   0.000039   0.000025  -0.000119  -0.000056
     2  C   -0.022955  -0.029397  -0.004811  -0.005201   0.001558  -0.000266
     3  C    0.417418   0.371505  -0.030804  -0.030720  -0.033404  -0.001607
     4  H   -0.003568   0.008786   0.005502   0.000389   0.000209   0.001764
     5  H   -0.009396  -0.004071  -0.000341   0.007671   0.000387  -0.000012
     6  H   -0.030181  -0.027148  -0.000761   0.001326   0.001126   0.000040
     7  Si  11.928192  -0.013197   0.415748   0.447165   0.391111  -0.024626
     8  H   -0.013197   0.575517   0.001623   0.001789   0.000826  -0.000070
     9  O    0.415748   0.001623   7.956901  -0.028144  -0.014236   0.292192
    10  O    0.447165   0.001789  -0.028144   7.829178  -0.025298  -0.000586
    11  H    0.391111   0.000826  -0.014236  -0.025298   0.714567   0.003145
    12  H   -0.024626  -0.000070   0.292192  -0.000586   0.003145   0.416390
    13  C   -0.051918   0.000114  -0.007121   0.260753   0.002465   0.000488
    14  H    0.008263   0.000000   0.000133  -0.040702  -0.000215   0.000016
    15  H   -0.017617  -0.000024  -0.000376  -0.042243   0.009514   0.000010
    16  H   -0.003338  -0.000018   0.007105  -0.042712  -0.001803   0.000135
             13         14         15         16
     1  H    0.000012  -0.000004   0.000001   0.000000
     2  C   -0.000175   0.000227  -0.000048  -0.000094
     3  C    0.001628  -0.000396   0.000036   0.000764
     4  H    0.000125  -0.000005  -0.000002  -0.000021
     5  H   -0.000009  -0.000164   0.000080  -0.000001
     6  H   -0.000124   0.000000   0.000004   0.000014
     7  Si  -0.051918   0.008263  -0.017617  -0.003338
     8  H    0.000114   0.000000  -0.000024  -0.000018
     9  O   -0.007121   0.000133  -0.000376   0.007105
    10  O    0.260753  -0.040702  -0.042243  -0.042712
    11  H    0.002465  -0.000215   0.009514  -0.001803
    12  H    0.000488   0.000016   0.000010   0.000135
    13  C    4.775964   0.400583   0.417832   0.412090
    14  H    0.400583   0.565580  -0.030377  -0.032492
    15  H    0.417832  -0.030377   0.591465  -0.046137
    16  H    0.412090  -0.032492  -0.046137   0.580794
 Mulliken atomic charges:
              1
     1  H    0.130186
     2  C   -0.390600
     3  C   -0.295142
     4  H    0.110156
     5  H    0.141473
     6  H    0.124486
     7  Si   0.560751
     8  H    0.120380
     9  O   -0.592649
    10  O   -0.332691
    11  H   -0.049835
    12  H    0.313043
    13  C   -0.212707
    14  H    0.129555
    15  H    0.117882
    16  H    0.125711
 Sum of Mulliken atomic charges =   0.00000
 Mulliken charges with hydrogens summed into heavy atoms:
              1
     2  C   -0.008785
     3  C   -0.050276
     7  Si   0.510917
     9  O   -0.279605
    10  O   -0.332691
    13  C    0.160441
 Sum of Mulliken charges with hydrogens summed into heavy atoms =   0.00000
 Electronic spatial extent (au):  <R**2>=            884.3877
 Charge=              0.0000 electrons
 Dipole moment (field-independent basis, Debye):
    X=             -0.3006    Y=             -1.0564    Z=             -0.5781  Tot=              1.2412
 Quadrupole moment (field-independent basis, Debye-Ang):
   XX=            -40.7653   YY=            -50.2309   ZZ=            -42.8046
   XY=             -1.7875   XZ=             -0.2467   YZ=             -1.8209
 Traceless Quadrupole moment (field-independent basis, Debye-Ang):
   XX=              3.8350   YY=             -5.6306   ZZ=              1.7956
   XY=             -1.7875   XZ=             -0.2467   YZ=             -1.8209
 Octapole moment (field-independent basis, Debye-Ang**2):
  XXX=             14.3202  YYY=             -9.0590  ZZZ=             -9.3508  XYY=             -1.4466
  XXY=             -2.6608  XXZ=             -1.3766  XZZ=              0.7702  YZZ=              5.4252
  YYZ=             -4.2091  XYZ=              2.0333
 Hexadecapole moment (field-independent basis, Debye-Ang**3):
 XXXX=           -700.2601 YYYY=           -314.2332 ZZZZ=           -172.8825 XXXY=            -12.3848
 XXXZ=             -7.4987 YYYX=            -12.8736 YYYZ=             -9.3079 ZZZX=             -3.1819
 ZZZY=            -17.7857 XXYY=           -165.2533 XXZZ=           -150.6606 YYZZ=            -66.4290
 XXYZ=             -0.0441 YYXZ=             -1.1659 ZZXY=             -4.9907
 N-N= 3.247250492252D+02 E-N=-1.973161285787D+03  KE= 5.580153542819D+02
 1\1\GINC-TARSUS2\SP\RPBE1PBE\def2TZVP\C3H10O2Si1\RENATO\09-Aug-2018\0\
 \#SP PBE1PBE/Def2TZVP geom=connectivity\\Structure: 247\\0,1\H,0,0.,0.
 ,0.\C,0,1.093,0.,0.\C,0,1.655,1.421,0.\H,0,1.41,-0.56,-0.885\H,0,1.424
 ,-0.557,0.88\H,0,1.308,1.969,-0.883\Si,0,3.513,1.515,0.035\H,0,1.282,1
 .975,0.868\O,0,4.281,0.711,-1.375\O,0,3.968,0.824,1.454\H,0,4.029,2.90
 6,-0.04\H,0,4.042,-0.201,-1.549\C,0,5.301,0.766,1.905\H,0,5.308,0.322,
 2.902\H,0,5.747,1.766,1.967\H,0,5.921,0.153,1.244\\Version=EM64L-G09Re
 vC.01\State=1-A\HF=-560.0517437\RMSD=4.826e-09\Dipole=-0.245781,-0.284
 7994,0.3113474\Quadrupole=0.9399157,0.8788709,-1.8187866,-1.0312519,3.
 2422786,1.8146404\PG=C01 [X(C3H10O2Si1)]\\@


 Standing in the middle of the road is very dangerous;
 you get knocked down by the traffic from both sides.
                                -- Margaret Thatcher
 Job cpu time:  0 days  0 hours 13 minutes 33.2 seconds.
 File lengths (MBytes):  RWF=     40 Int=      0 D2E=      0 Chk=      3 Scr=      1
 Normal termination of Gaussian 09 at Thu Aug  9 23:27:25 2018.
