 Entering Gaussian System, Link 0=g09
 Initial command:
 /usr/local/gaussian09/g09/l1.exe /scratch/renato/Gau-8867.inp -scrdir=/scratch/renato/
 Entering Link 1 = /usr/local/gaussian09/g09/l1.exe PID=      8869.
  
 Copyright (c) 1988,1990,1992,1993,1995,1998,2003,2009,2011,
            Gaussian, Inc.  All Rights Reserved.
  
 This is part of the Gaussian(R) 09 program.  It is based on
 the Gaussian(R) 03 system (copyright 2003, Gaussian, Inc.),
 the Gaussian(R) 98 system (copyright 1998, Gaussian, Inc.),
 the Gaussian(R) 94 system (copyright 1995, Gaussian, Inc.),
 the Gaussian 92(TM) system (copyright 1992, Gaussian, Inc.),
 the Gaussian 90(TM) system (copyright 1990, Gaussian, Inc.),
 the Gaussian 88(TM) system (copyright 1988, Gaussian, Inc.),
 the Gaussian 86(TM) system (copyright 1986, Carnegie Mellon
 University), and the Gaussian 82(TM) system (copyright 1983,
 Carnegie Mellon University). Gaussian is a federally registered
 trademark of Gaussian, Inc.
  
 This software contains proprietary and confidential information,
 including trade secrets, belonging to Gaussian, Inc.
  
 This software is provided under written license and may be
 used, copied, transmitted, or stored only in accord with that
 written license.
  
 The following legend is applicable only to US Government
 contracts under FAR:
  
                    RESTRICTED RIGHTS LEGEND
  
 Use, reproduction and disclosure by the US Government is
 subject to restrictions as set forth in subparagraphs (a)
 and (c) of the Commercial Computer Software - Restricted
 Rights clause in FAR 52.227-19.
  
 Gaussian, Inc.
 340 Quinnipiac St., Bldg. 40, Wallingford CT 06492
  
  
 ---------------------------------------------------------------
 Warning -- This program may not be used in any manner that
 competes with the business of Gaussian, Inc. or will provide
 assistance to any competitor of Gaussian, Inc.  The licensee
 of this program is prohibited from giving any competitor of
 Gaussian, Inc. access to this program.  By using this program,
 the user acknowledges that Gaussian, Inc. is engaged in the
 business of creating and licensing software in the field of
 computational chemistry and represents and warrants to the
 licensee that it is not a competitor of Gaussian, Inc. and that
 it will not use this program in any manner prohibited above.
 ---------------------------------------------------------------
  

 Cite this work as:
 Gaussian 09, Revision C.01,
 M. J. Frisch, G. W. Trucks, H. B. Schlegel, G. E. Scuseria, 
 M. A. Robb, J. R. Cheeseman, G. Scalmani, V. Barone, B. Mennucci, 
 G. A. Petersson, H. Nakatsuji, M. Caricato, X. Li, H. P. Hratchian, 
 A. F. Izmaylov, J. Bloino, G. Zheng, J. L. Sonnenberg, M. Hada, 
 M. Ehara, K. Toyota, R. Fukuda, J. Hasegawa, M. Ishida, T. Nakajima, 
 Y. Honda, O. Kitao, H. Nakai, T. Vreven, J. A. Montgomery, Jr., 
 J. E. Peralta, F. Ogliaro, M. Bearpark, J. J. Heyd, E. Brothers, 
 K. N. Kudin, V. N. Staroverov, T. Keith, R. Kobayashi, J. Normand, 
 K. Raghavachari, A. Rendell, J. C. Burant, S. S. Iyengar, J. Tomasi, 
 M. Cossi, N. Rega, J. M. Millam, M. Klene, J. E. Knox, J. B. Cross, 
 V. Bakken, C. Adamo, J. Jaramillo, R. Gomperts, R. E. Stratmann, 
 O. Yazyev, A. J. Austin, R. Cammi, C. Pomelli, J. W. Ochterski, 
 R. L. Martin, K. Morokuma, V. G. Zakrzewski, G. A. Voth, 
 P. Salvador, J. J. Dannenberg, S. Dapprich, A. D. Daniels, 
 O. Farkas, J. B. Foresman, J. V. Ortiz, J. Cioslowski, 
 and D. J. Fox, Gaussian, Inc., Wallingford CT, 2010.
 
 ******************************************
 Gaussian 09:  EM64L-G09RevC.01 23-Sep-2011
                10-Aug-2018 
 ******************************************
 %nproc=2
 Will use up to    2 processors via shared memory.
 %mem=256MB
 %RWF=bm3.rwf
 %chk=bm329
 %NoSave
 --------------------------------------
 #SP PBE1PBE/Def2TZVP geom=connectivity
 --------------------------------------
 1/38=1,57=2/1;
 2/12=2,17=6,18=5,40=1/2;
 3/5=44,7=101,11=2,16=1,25=1,30=1,74=-13/1,2,3;
 4//1;
 5/5=2,38=5/2;
 6/7=2,8=2,9=2,10=2,28=1/1;
 99/5=1,9=1/99;
 -------------
 Structure: 29
 -------------
 Charge =  0 Multiplicity = 1
 Symbolic Z-Matrix:
 H                     0.        0.        0. 
 C                     1.093     0.        0. 
 C                     1.655     1.421     0. 
 H                     1.41     -0.56     -0.885 
 H                     1.424    -0.557     0.88 
 H                     1.308     1.969    -0.883 
 Si                    3.513     1.515     0.035 
 H                     1.282     1.975     0.868 
 O                     4.094     0.906    -1.033 
 O                     3.968     0.824     1.454 
 H                     4.029     2.906    -0.04 
 H                     3.855    -0.005    -1.207 
 C                     5.301     0.766     1.905 
 H                     5.308     0.322     2.902 
 H                     5.747     1.766     1.967 
 H                     5.921     0.153     1.244 
 
                          Input orientation:                          
 ---------------------------------------------------------------------
 Center     Atomic      Atomic             Coordinates (Angstroms)
 Number     Number       Type             X           Y           Z
 ---------------------------------------------------------------------
      1          1           0        0.000000    0.000000    0.000000
      2          6           0        1.093000    0.000000    0.000000
      3          6           0        1.655000    1.421000    0.000000
      4          1           0        1.410000   -0.560000   -0.885000
      5          1           0        1.424000   -0.557000    0.880000
      6          1           0        1.308000    1.969000   -0.883000
      7         14           0        3.513000    1.515000    0.035000
      8          1           0        1.282000    1.975000    0.868000
      9          8           0        4.094000    0.906000   -1.033000
     10          8           0        3.968000    0.824000    1.454000
     11          1           0        4.029000    2.906000   -0.040000
     12          1           0        3.855000   -0.005000   -1.207000
     13          6           0        5.301000    0.766000    1.905000
     14          1           0        5.308000    0.322000    2.902000
     15          1           0        5.747000    1.766000    1.967000
     16          1           0        5.921000    0.153000    1.244000
 ---------------------------------------------------------------------
                    Distance matrix (angstroms):
                    1          2          3          4          5
     1  H    0.000000
     2  C    1.093000   0.000000
     3  C    2.181345   1.528098   0.000000
     4  H    1.756395   1.094218   2.183486   0.000000
     5  H    1.764207   1.092799   2.177210   1.765058   0.000000
     6  H    2.523393   2.168611   1.095629   2.531057   3.082580
     7  Si   3.825914   2.855320   1.860706   3.094291   3.061230
     8  H    2.509497   2.165588   1.095203   3.084740   2.536007
     9  O    4.318421   3.300595   2.698339   3.061848   3.595669
    10  O    4.305591   3.325465   2.796515   3.732257   2.951029
    11  H    4.967824   4.131166   2.800482   4.425646   4.429988
    12  H    4.039542   3.014219   2.886230   2.527792   3.251159
    13  C    5.684750   4.682205   4.165497   4.968124   4.222805
    14  H    6.058065   5.127525   4.793101   5.505788   4.466160
    15  H    6.325809   5.352342   4.553304   5.688036   5.026552
    16  H    6.052205   4.988039   4.621051   5.038862   4.567232
                    6          7          8          9         10
     6  H    0.000000
     7  Si   2.431227   0.000000
     8  H    1.751203   2.425459   0.000000
     9  O    2.985677   1.359804   3.558638   0.000000
    10  O    3.721316   1.642579   2.980401   2.491539   0.000000
    11  H    2.998743   1.485517   3.039282   2.233892   2.563295
    12  H    3.238651   1.992468   3.853097   0.957767   2.789432
    13  C    5.016393   2.693482   4.323125   3.179354   1.408423
    14  H    5.747942   3.586776   4.803982   4.159216   2.035757
    15  H    5.279056   2.964183   4.603011   3.531573   2.077348
    16  H    5.394604   3.019137   4.998138   3.014907   2.075705
                   11         12         13         14         15
    11  H    0.000000
    12  H    3.141033   0.000000
    13  C    3.159210   3.517087   0.000000
    14  H    4.119255   4.370586   1.091418   0.000000
    15  H    2.877355   4.097607   1.096704   1.775410   0.000000
    16  H    3.578733   3.209474   1.094116   1.775752   1.776168
                   16
    16  H    0.000000
 Stoichiometry    C3H10O2Si
 Framework group  C1[X(C3H10O2Si)]
 Deg. of freedom    42
 Full point group                 C1      NOp   1
 Largest Abelian subgroup         C1      NOp   1
 Largest concise Abelian subgroup C1      NOp   1
                         Standard orientation:                         
 ---------------------------------------------------------------------
 Center     Atomic      Atomic             Coordinates (Angstroms)
 Number     Number       Type             X           Y           Z
 ---------------------------------------------------------------------
      1          1           0       -3.225213   -1.243893   -0.309496
      2          6           0       -2.231942   -0.849577   -0.538792
      3          6           0       -1.618103   -0.137499    0.665880
      4          1           0       -2.348211   -0.173920   -1.391601
      5          1           0       -1.609910   -1.687517   -0.863049
      6          1           0       -2.256561    0.694026    0.984219
      7         14           0        0.091572    0.536359    0.374071
      8          1           0       -1.560146   -0.820872    1.519760
      9          8           0        0.136451    1.447263   -0.634544
     10          8           0        1.038078   -0.768973    0.060537
     11          1           0        0.630608    1.285665    1.538005
     12          1           0       -0.218358    1.184331   -1.484423
     13          6           0        2.430588   -0.697188   -0.137995
     14          1           0        2.814466   -1.712254   -0.254062
     15          1           0        2.933941   -0.231242    0.717745
     16          1           0        2.677883   -0.124087   -1.036600
 ---------------------------------------------------------------------
 Rotational constants (GHZ):      4.6288057      1.9280186      1.6414872
 Standard basis: def2TZVP (5D, 7F)
 There are   252 symmetry adapted basis functions of A   symmetry.
 Integral buffers will be    131072 words long.
 Raffenetti 2 integral format.
 Two-electron integral symmetry is turned on.
   252 basis functions,   404 primitive gaussians,   282 cartesian basis functions
    29 alpha electrons       29 beta electrons
       nuclear repulsion energy       341.3059976191 Hartrees.
 NAtoms=   16 NActive=   16 NUniq=   16 SFac= 1.00D+00 NAtFMM=   60 NAOKFM=F Big=F
 One-electron integrals computed using PRISM.
   1 Symmetry operations used in ECPInt.
 ECPInt:  NShTT=    5886 NPrTT=   17754 LenC2=    5784 LenP2D=   13995.
 LDataN:  DoStor=T MaxTD1= 6 Len=  172
 NBasis=   252 RedAO= T  NBF=   252
 NBsUse=   252 1.00D-06 NBFU=   252
 Harris functional with IExCor= 1009 diagonalized for initial guess.
 ExpMin= 7.01D-02 ExpMax= 4.48D+04 ExpMxC= 1.53D+03 IAcc=2 IRadAn=         4 AccDes= 0.00D+00
 HarFok:  IExCor= 1009 AccDes= 0.00D+00 IRadAn=         4 IDoV= 1
 ScaDFX=  1.000000  1.000000  1.000000  1.000000
 FoFCou: FMM=F IPFlag=           0 FMFlag=      100000 FMFlg1=           0
         NFxFlg=           0 DoJE=T BraDBF=F KetDBF=T FulRan=T
         Omega=  0.000000  0.000000  1.000000  0.000000  0.000000 ICntrl=     500 IOpCl=  0
         NMat0=    1 NMatS0=    1 NMatT0=    0 NMatD0=    1 NMtDS0=    0 NMtDT0=    0
         I1Cent=           4 NGrid=           0.
 Petite list used in FoFCou.
 Initial guess orbital symmetries:
       Occupied  (A) (A) (A) (A) (A) (A) (A) (A) (A) (A) (A) (A)
                 (A) (A) (A) (A) (A) (A) (A) (A) (A) (A) (A) (A)
                 (A) (A) (A) (A) (A)
       Virtual   (A) (A) (A) (A) (A) (A) (A) (A) (A) (A) (A) (A)
                 (A) (A) (A) (A) (A) (A) (A) (A) (A) (A) (A) (A)
                 (A) (A) (A) (A) (A) (A) (A) (A) (A) (A) (A) (A)
                 (A) (A) (A) (A) (A) (A) (A) (A) (A) (A) (A) (A)
                 (A) (A) (A) (A) (A) (A) (A) (A) (A) (A) (A) (A)
                 (A) (A) (A) (A) (A) (A) (A) (A) (A) (A) (A) (A)
                 (A) (A) (A) (A) (A) (A) (A) (A) (A) (A) (A) (A)
                 (A) (A) (A) (A) (A) (A) (A) (A) (A) (A) (A) (A)
                 (A) (A) (A) (A) (A) (A) (A) (A) (A) (A) (A) (A)
                 (A) (A) (A) (A) (A) (A) (A) (A) (A) (A) (A) (A)
                 (A) (A) (A) (A) (A) (A) (A) (A) (A) (A) (A) (A)
                 (A) (A) (A) (A) (A) (A) (A) (A) (A) (A) (A) (A)
                 (A) (A) (A) (A) (A) (A) (A) (A) (A) (A) (A) (A)
                 (A) (A) (A) (A) (A) (A) (A) (A) (A) (A) (A) (A)
                 (A) (A) (A) (A) (A) (A) (A) (A) (A) (A) (A) (A)
                 (A) (A) (A) (A) (A) (A) (A) (A) (A) (A) (A) (A)
                 (A) (A) (A) (A) (A) (A) (A) (A) (A) (A) (A) (A)
                 (A) (A) (A) (A) (A) (A) (A) (A) (A) (A) (A) (A)
                 (A) (A) (A) (A) (A) (A) (A)
 The electronic state of the initial guess is 1-A.
 Requested convergence on RMS density matrix=1.00D-08 within 128 cycles.
 Requested convergence on MAX density matrix=1.00D-06.
 Requested convergence on             energy=1.00D-06.
 No special actions if energy rises.
 Integral accuracy reduced to 1.0D-05 until final iterations.
 Initial convergence to 1.0D-05 achieved.  Increase integral accuracy.
 SCF Done:  E(RPBE1PBE) =  -559.976579851     A.U. after   12 cycles
             Convg  =    0.9603D-08             -V/T =  2.0013

 **********************************************************************

            Population analysis using the SCF density.

 **********************************************************************

 Orbital symmetries:
       Occupied  (A) (A) (A) (A) (A) (A) (A) (A) (A) (A) (A) (A)
                 (A) (A) (A) (A) (A) (A) (A) (A) (A) (A) (A) (A)
                 (A) (A) (A) (A) (A)
       Virtual   (A) (A) (A) (A) (A) (A) (A) (A) (A) (A) (A) (A)
                 (A) (A) (A) (A) (A) (A) (A) (A) (A) (A) (A) (A)
                 (A) (A) (A) (A) (A) (A) (A) (A) (A) (A) (A) (A)
                 (A) (A) (A) (A) (A) (A) (A) (A) (A) (A) (A) (A)
                 (A) (A) (A) (A) (A) (A) (A) (A) (A) (A) (A) (A)
                 (A) (A) (A) (A) (A) (A) (A) (A) (A) (A) (A) (A)
                 (A) (A) (A) (A) (A) (A) (A) (A) (A) (A) (A) (A)
                 (A) (A) (A) (A) (A) (A) (A) (A) (A) (A) (A) (A)
                 (A) (A) (A) (A) (A) (A) (A) (A) (A) (A) (A) (A)
                 (A) (A) (A) (A) (A) (A) (A) (A) (A) (A) (A) (A)
                 (A) (A) (A) (A) (A) (A) (A) (A) (A) (A) (A) (A)
                 (A) (A) (A) (A) (A) (A) (A) (A) (A) (A) (A) (A)
                 (A) (A) (A) (A) (A) (A) (A) (A) (A) (A) (A) (A)
                 (A) (A) (A) (A) (A) (A) (A) (A) (A) (A) (A) (A)
                 (A) (A) (A) (A) (A) (A) (A) (A) (A) (A) (A) (A)
                 (A) (A) (A) (A) (A) (A) (A) (A) (A) (A) (A) (A)
                 (A) (A) (A) (A) (A) (A) (A) (A) (A) (A) (A) (A)
                 (A) (A) (A) (A) (A) (A) (A) (A) (A) (A) (A) (A)
                 (A) (A) (A) (A) (A) (A) (A)
 The electronic state is 1-A.
 Alpha  occ. eigenvalues --  -66.20886 -19.21250 -19.18686 -10.26009 -10.21510
 Alpha  occ. eigenvalues --  -10.19642  -5.30100  -3.63864  -3.63328  -3.63164
 Alpha  occ. eigenvalues --   -1.10937  -1.02593  -0.77637  -0.69926  -0.63884
 Alpha  occ. eigenvalues --   -0.61294  -0.51495  -0.47335  -0.46626  -0.45955
 Alpha  occ. eigenvalues --   -0.43551  -0.42733  -0.41258  -0.39483  -0.36321
 Alpha  occ. eigenvalues --   -0.35651  -0.31116  -0.29671  -0.28449
 Alpha virt. eigenvalues --    0.01822   0.06177   0.06623   0.08476   0.09133
 Alpha virt. eigenvalues --    0.10534   0.11398   0.12068   0.12558   0.13509
 Alpha virt. eigenvalues --    0.15264   0.15630   0.17041   0.17662   0.19776
 Alpha virt. eigenvalues --    0.21618   0.22573   0.24165   0.24889   0.25314
 Alpha virt. eigenvalues --    0.26575   0.28863   0.29391   0.30961   0.33349
 Alpha virt. eigenvalues --    0.34291   0.36507   0.39026   0.41184   0.41529
 Alpha virt. eigenvalues --    0.42351   0.42925   0.44571   0.45108   0.46436
 Alpha virt. eigenvalues --    0.46975   0.47739   0.48152   0.50578   0.51456
 Alpha virt. eigenvalues --    0.52950   0.53831   0.55732   0.57516   0.59556
 Alpha virt. eigenvalues --    0.60737   0.63856   0.66033   0.67367   0.68669
 Alpha virt. eigenvalues --    0.74447   0.76040   0.76951   0.79474   0.83483
 Alpha virt. eigenvalues --    0.84572   0.84776   0.86445   0.89381   0.92295
 Alpha virt. eigenvalues --    0.94319   0.96038   0.98953   1.00768   1.01951
 Alpha virt. eigenvalues --    1.05202   1.07697   1.10148   1.11189   1.11516
 Alpha virt. eigenvalues --    1.12763   1.16175   1.20817   1.21891   1.25721
 Alpha virt. eigenvalues --    1.26730   1.32294   1.36131   1.38766   1.42528
 Alpha virt. eigenvalues --    1.43845   1.48088   1.51405   1.51560   1.53378
 Alpha virt. eigenvalues --    1.55130   1.55854   1.56495   1.57359   1.59580
 Alpha virt. eigenvalues --    1.60295   1.63841   1.65096   1.66555   1.67530
 Alpha virt. eigenvalues --    1.69760   1.75191   1.77759   1.80103   1.81350
 Alpha virt. eigenvalues --    1.82746   1.85774   1.89808   1.91139   1.94392
 Alpha virt. eigenvalues --    1.96232   1.97252   2.01006   2.04446   2.07383
 Alpha virt. eigenvalues --    2.07536   2.09814   2.13981   2.15765   2.17874
 Alpha virt. eigenvalues --    2.20505   2.22742   2.25539   2.30658   2.32539
 Alpha virt. eigenvalues --    2.33795   2.34806   2.35494   2.36631   2.38164
 Alpha virt. eigenvalues --    2.40486   2.42799   2.48357   2.48998   2.52026
 Alpha virt. eigenvalues --    2.52954   2.55012   2.55916   2.56904   2.59114
 Alpha virt. eigenvalues --    2.61207   2.62144   2.66844   2.69418   2.72906
 Alpha virt. eigenvalues --    2.74923   2.80482   2.81341   2.86301   2.89796
 Alpha virt. eigenvalues --    2.92635   2.95416   2.99895   3.00575   3.06382
 Alpha virt. eigenvalues --    3.09717   3.11831   3.12879   3.16285   3.17713
 Alpha virt. eigenvalues --    3.22951   3.23140   3.24868   3.30729   3.31653
 Alpha virt. eigenvalues --    3.33307   3.33906   3.39078   3.41308   3.45257
 Alpha virt. eigenvalues --    3.45963   3.47108   3.53806   3.54298   3.59085
 Alpha virt. eigenvalues --    3.60614   3.63060   3.66443   3.75761   3.77574
 Alpha virt. eigenvalues --    3.82340   3.93175   3.96211   4.03291   4.18968
 Alpha virt. eigenvalues --    4.23382   4.24926   4.26325   4.34760   4.37661
 Alpha virt. eigenvalues --    4.42140   4.47981   4.54233   4.58013   4.79408
 Alpha virt. eigenvalues --    5.14452   5.15240   5.21712   5.25400   5.32308
 Alpha virt. eigenvalues --    5.39343   5.41893   5.46707   5.49517   5.73761
 Alpha virt. eigenvalues --    5.81571   5.87824   6.04681   6.29631   6.44757
 Alpha virt. eigenvalues --    6.47281   6.59356   6.61446   6.65416   6.74012
 Alpha virt. eigenvalues --    6.78832   6.83605   6.87611   7.04710   7.16754
 Alpha virt. eigenvalues --    7.20140   7.25109  12.18484  22.37448  22.41546
 Alpha virt. eigenvalues --   22.46889  43.83211  43.97355
          Condensed to atoms (all electrons):
              1          2          3          4          5          6
     1  H    0.548209   0.409815  -0.032505  -0.024902  -0.023680  -0.006782
     2  C    0.409815   4.949159   0.300476   0.401671   0.414713  -0.034017
     3  C   -0.032505   0.300476   5.089959  -0.046821  -0.042347   0.384291
     4  H   -0.024902   0.401671  -0.046821   0.601316  -0.030339  -0.004875
     5  H   -0.023680   0.414713  -0.042347  -0.030339   0.531231   0.008061
     6  H   -0.006782  -0.034017   0.384291  -0.004875   0.008061   0.586144
     7  Si   0.006879  -0.016300   0.434472  -0.009579  -0.005669  -0.024526
     8  H   -0.007420  -0.024991   0.367151   0.009059  -0.004106  -0.024589
     9  O   -0.000065  -0.000712  -0.043580   0.003016  -0.000498  -0.001928
    10  O   -0.000012  -0.004333  -0.032595   0.000479   0.007228   0.001321
    11  H   -0.000108   0.002514  -0.040037   0.000201   0.000441   0.001891
    12  H   -0.000211   0.002734  -0.004233   0.003671   0.000133   0.000114
    13  C    0.000008   0.000002   0.002778   0.000063  -0.000175  -0.000134
    14  H   -0.000004   0.000223  -0.000479   0.000000  -0.000168  -0.000001
    15  H    0.000000  -0.000014  -0.000245  -0.000001   0.000084   0.000008
    16  H    0.000002  -0.000184   0.000984  -0.000008   0.000043   0.000015
              7          8          9         10         11         12
     1  H    0.006879  -0.007420  -0.000065  -0.000012  -0.000108  -0.000211
     2  C   -0.016300  -0.024991  -0.000712  -0.004333   0.002514   0.002734
     3  C    0.434472   0.367151  -0.043580  -0.032595  -0.040037  -0.004233
     4  H   -0.009579   0.009059   0.003016   0.000479   0.000201   0.003671
     5  H   -0.005669  -0.004106  -0.000498   0.007228   0.000441   0.000133
     6  H   -0.024526  -0.024589  -0.001928   0.001321   0.001891   0.000114
     7  Si  11.886523  -0.016373   0.546934   0.467149   0.387424  -0.048283
     8  H   -0.016373   0.582098   0.002641   0.001806   0.001119   0.000202
     9  O    0.546934   0.002641   7.573755  -0.044033  -0.020204   0.321603
    10  O    0.467149   0.001806  -0.044033   7.864757  -0.028648  -0.003521
    11  H    0.387424   0.001119  -0.020204  -0.028648   0.773616   0.007253
    12  H   -0.048283   0.000202   0.321603  -0.003521   0.007253   0.384127
    13  C   -0.045954   0.000029  -0.005676   0.263497   0.002264   0.001403
    14  H    0.006614   0.000005  -0.000011  -0.041740  -0.000255   0.000028
    15  H   -0.017274  -0.000003  -0.000798  -0.043217   0.011459  -0.000179
    16  H   -0.007338  -0.000023   0.006241  -0.046886  -0.002268   0.000965
             13         14         15         16
     1  H    0.000008  -0.000004   0.000000   0.000002
     2  C    0.000002   0.000223  -0.000014  -0.000184
     3  C    0.002778  -0.000479  -0.000245   0.000984
     4  H    0.000063   0.000000  -0.000001  -0.000008
     5  H   -0.000175  -0.000168   0.000084   0.000043
     6  H   -0.000134  -0.000001   0.000008   0.000015
     7  Si  -0.045954   0.006614  -0.017274  -0.007338
     8  H    0.000029   0.000005  -0.000003  -0.000023
     9  O   -0.005676  -0.000011  -0.000798   0.006241
    10  O    0.263497  -0.041740  -0.043217  -0.046886
    11  H    0.002264  -0.000255   0.011459  -0.002268
    12  H    0.001403   0.000028  -0.000179   0.000965
    13  C    4.758486   0.406020   0.417905   0.410935
    14  H    0.406020   0.567963  -0.030266  -0.035623
    15  H    0.417905  -0.030266   0.595717  -0.050832
    16  H    0.410935  -0.035623  -0.050832   0.616026
 Mulliken atomic charges:
              1
     1  H    0.130775
     2  C   -0.400756
     3  C   -0.337269
     4  H    0.097049
     5  H    0.145049
     6  H    0.115007
     7  Si   0.455302
     8  H    0.113393
     9  O   -0.336684
    10  O   -0.361253
    11  H   -0.096663
    12  H    0.334194
    13  C   -0.211449
    14  H    0.127693
    15  H    0.117658
    16  H    0.107953
 Sum of Mulliken atomic charges =   0.00000
 Mulliken charges with hydrogens summed into heavy atoms:
              1
     2  C   -0.027883
     3  C   -0.108869
     7  Si   0.358639
     9  O   -0.002490
    10  O   -0.361253
    13  C    0.141856
 Sum of Mulliken charges with hydrogens summed into heavy atoms =   0.00000
 Electronic spatial extent (au):  <R**2>=            836.4837
 Charge=              0.0000 electrons
 Dipole moment (field-independent basis, Debye):
    X=             -0.2543    Y=              0.0818    Z=             -1.6712  Tot=              1.6924
 Quadrupole moment (field-independent basis, Debye-Ang):
   XX=            -41.9003   YY=            -47.8852   ZZ=            -42.8316
   XY=             -1.4411   XZ=             -0.1429   YZ=             -1.8327
 Traceless Quadrupole moment (field-independent basis, Debye-Ang):
   XX=              2.3054   YY=             -3.6795   ZZ=              1.3741
   XY=             -1.4411   XZ=             -0.1429   YZ=             -1.8327
 Octapole moment (field-independent basis, Debye-Ang**2):
  XXX=             14.6631  YYY=             -2.1852  ZZZ=            -13.0252  XYY=              0.0366
  XXY=             -1.1472  XXZ=             -1.2964  XZZ=              0.4369  YZZ=              3.3795
  YYZ=             -2.7233  XYZ=              1.3099
 Hexadecapole moment (field-independent basis, Debye-Ang**3):
 XXXX=           -715.3343 YYYY=           -256.1964 ZZZZ=           -149.4514 XXXY=            -12.0552
 XXXZ=             -4.1377 YYYX=            -11.4288 YYYZ=             -6.2793 ZZZX=             -1.7173
 ZZZY=            -20.9419 XXYY=           -158.5507 XXZZ=           -151.0119 YYZZ=            -66.4791
 XXYZ=             -3.2365 YYXZ=             -2.1950 ZZXY=             -4.5743
 N-N= 3.413059976191D+02 E-N=-2.007450387598D+03  KE= 5.592606325973D+02
 1\1\GINC-TARSUS2\SP\RPBE1PBE\def2TZVP\C3H10O2Si1\RENATO\10-Aug-2018\0\
 \#SP PBE1PBE/Def2TZVP geom=connectivity\\Structure: 29\\0,1\H,0,0.,0.,
 0.\C,0,1.093,0.,0.\C,0,1.655,1.421,0.\H,0,1.41,-0.56,-0.885\H,0,1.424,
 -0.557,0.88\H,0,1.308,1.969,-0.883\Si,0,3.513,1.515,0.035\H,0,1.282,1.
 975,0.868\O,0,4.094,0.906,-1.033\O,0,3.968,0.824,1.454\H,0,4.029,2.906
 ,-0.04\H,0,3.855,-0.005,-1.207\C,0,5.301,0.766,1.905\H,0,5.308,0.322,2
 .902\H,0,5.747,1.766,1.967\H,0,5.921,0.153,1.244\\Version=EM64L-G09Rev
 C.01\State=1-A\HF=-559.9765799\RMSD=9.603e-09\Dipole=0.058618,-0.60769
 59,-0.265767\Quadrupole=0.648604,-0.4365988,-0.2120052,-1.2605197,1.69
 20987,1.9920126\PG=C01 [X(C3H10O2Si1)]\\@


 MORNING PEOPLE ARE USUALLY ADMIRED AS EARLY BIRDS.
 RECALL BEN FRANKLIN'S APHORISM THAT THE EARLY BIRD GETS THE WORM.
 I IDENTIFY WITH THE WORM. --  CRAIG JAGGER, MINNEAPOLIS, KS.
 Job cpu time:  0 days  0 hours 13 minutes  5.9 seconds.
 File lengths (MBytes):  RWF=     40 Int=      0 D2E=      0 Chk=      3 Scr=      1
 Normal termination of Gaussian 09 at Fri Aug 10 00:58:02 2018.
