 Entering Gaussian System, Link 0=g09
 Initial command:
 /usr/local/gaussian09/g09/l1.exe /scratch/renato/Gau-12263.inp -scrdir=/scratch/renato/
 Entering Link 1 = /usr/local/gaussian09/g09/l1.exe PID=     12265.
  
 Copyright (c) 1988,1990,1992,1993,1995,1998,2003,2009,2011,
            Gaussian, Inc.  All Rights Reserved.
  
 This is part of the Gaussian(R) 09 program.  It is based on
 the Gaussian(R) 03 system (copyright 2003, Gaussian, Inc.),
 the Gaussian(R) 98 system (copyright 1998, Gaussian, Inc.),
 the Gaussian(R) 94 system (copyright 1995, Gaussian, Inc.),
 the Gaussian 92(TM) system (copyright 1992, Gaussian, Inc.),
 the Gaussian 90(TM) system (copyright 1990, Gaussian, Inc.),
 the Gaussian 88(TM) system (copyright 1988, Gaussian, Inc.),
 the Gaussian 86(TM) system (copyright 1986, Carnegie Mellon
 University), and the Gaussian 82(TM) system (copyright 1983,
 Carnegie Mellon University). Gaussian is a federally registered
 trademark of Gaussian, Inc.
  
 This software contains proprietary and confidential information,
 including trade secrets, belonging to Gaussian, Inc.
  
 This software is provided under written license and may be
 used, copied, transmitted, or stored only in accord with that
 written license.
  
 The following legend is applicable only to US Government
 contracts under FAR:
  
                    RESTRICTED RIGHTS LEGEND
  
 Use, reproduction and disclosure by the US Government is
 subject to restrictions as set forth in subparagraphs (a)
 and (c) of the Commercial Computer Software - Restricted
 Rights clause in FAR 52.227-19.
  
 Gaussian, Inc.
 340 Quinnipiac St., Bldg. 40, Wallingford CT 06492
  
  
 ---------------------------------------------------------------
 Warning -- This program may not be used in any manner that
 competes with the business of Gaussian, Inc. or will provide
 assistance to any competitor of Gaussian, Inc.  The licensee
 of this program is prohibited from giving any competitor of
 Gaussian, Inc. access to this program.  By using this program,
 the user acknowledges that Gaussian, Inc. is engaged in the
 business of creating and licensing software in the field of
 computational chemistry and represents and warrants to the
 licensee that it is not a competitor of Gaussian, Inc. and that
 it will not use this program in any manner prohibited above.
 ---------------------------------------------------------------
  

 Cite this work as:
 Gaussian 09, Revision C.01,
 M. J. Frisch, G. W. Trucks, H. B. Schlegel, G. E. Scuseria, 
 M. A. Robb, J. R. Cheeseman, G. Scalmani, V. Barone, B. Mennucci, 
 G. A. Petersson, H. Nakatsuji, M. Caricato, X. Li, H. P. Hratchian, 
 A. F. Izmaylov, J. Bloino, G. Zheng, J. L. Sonnenberg, M. Hada, 
 M. Ehara, K. Toyota, R. Fukuda, J. Hasegawa, M. Ishida, T. Nakajima, 
 Y. Honda, O. Kitao, H. Nakai, T. Vreven, J. A. Montgomery, Jr., 
 J. E. Peralta, F. Ogliaro, M. Bearpark, J. J. Heyd, E. Brothers, 
 K. N. Kudin, V. N. Staroverov, T. Keith, R. Kobayashi, J. Normand, 
 K. Raghavachari, A. Rendell, J. C. Burant, S. S. Iyengar, J. Tomasi, 
 M. Cossi, N. Rega, J. M. Millam, M. Klene, J. E. Knox, J. B. Cross, 
 V. Bakken, C. Adamo, J. Jaramillo, R. Gomperts, R. E. Stratmann, 
 O. Yazyev, A. J. Austin, R. Cammi, C. Pomelli, J. W. Ochterski, 
 R. L. Martin, K. Morokuma, V. G. Zakrzewski, G. A. Voth, 
 P. Salvador, J. J. Dannenberg, S. Dapprich, A. D. Daniels, 
 O. Farkas, J. B. Foresman, J. V. Ortiz, J. Cioslowski, 
 and D. J. Fox, Gaussian, Inc., Wallingford CT, 2010.
 
 ******************************************
 Gaussian 09:  EM64L-G09RevC.01 23-Sep-2011
                10-Aug-2018 
 ******************************************
 %nproc=2
 Will use up to    2 processors via shared memory.
 %mem=256MB
 %RWF=bm3.rwf
 %chk=bm3236
 %NoSave
 --------------------------------------
 #SP PBE1PBE/Def2TZVP geom=connectivity
 --------------------------------------
 1/38=1,57=2/1;
 2/12=2,17=6,18=5,40=1/2;
 3/5=44,7=101,11=2,16=1,25=1,30=1,74=-13/1,2,3;
 4//1;
 5/5=2,38=5/2;
 6/7=2,8=2,9=2,10=2,28=1/1;
 99/5=1,9=1/99;
 --------------
 Structure: 236
 --------------
 Charge =  0 Multiplicity = 1
 Symbolic Z-Matrix:
 H                     0.        0.        0. 
 C                     1.093     0.        0. 
 C                     1.655     1.421     0. 
 H                     1.41     -0.56     -0.885 
 H                     1.424    -0.557     0.88 
 H                     1.308     1.969    -0.883 
 Si                    3.513     1.515     0.035 
 H                     1.282     1.975     0.868 
 O                     4.271     0.721    -1.358 
 O                     3.968     0.824     1.454 
 H                     4.029     2.906    -0.04 
 H                     4.032    -0.191    -1.532 
 C                     5.301     0.766     1.905 
 H                     5.308     0.322     2.902 
 H                     5.747     1.766     1.967 
 H                     5.921     0.153     1.244 
 
                          Input orientation:                          
 ---------------------------------------------------------------------
 Center     Atomic      Atomic             Coordinates (Angstroms)
 Number     Number       Type             X           Y           Z
 ---------------------------------------------------------------------
      1          1           0        0.000000    0.000000    0.000000
      2          6           0        1.093000    0.000000    0.000000
      3          6           0        1.655000    1.421000    0.000000
      4          1           0        1.410000   -0.560000   -0.885000
      5          1           0        1.424000   -0.557000    0.880000
      6          1           0        1.308000    1.969000   -0.883000
      7         14           0        3.513000    1.515000    0.035000
      8          1           0        1.282000    1.975000    0.868000
      9          8           0        4.271000    0.721000   -1.358000
     10          8           0        3.968000    0.824000    1.454000
     11          1           0        4.029000    2.906000   -0.040000
     12          1           0        4.032000   -0.191000   -1.532000
     13          6           0        5.301000    0.766000    1.905000
     14          1           0        5.308000    0.322000    2.902000
     15          1           0        5.747000    1.766000    1.967000
     16          1           0        5.921000    0.153000    1.244000
 ---------------------------------------------------------------------
                    Distance matrix (angstroms):
                    1          2          3          4          5
     1  H    0.000000
     2  C    1.093000   0.000000
     3  C    2.181345   1.528098   0.000000
     4  H    1.756395   1.094218   2.183486   0.000000
     5  H    1.764207   1.092799   2.177210   1.765058   0.000000
     6  H    2.523393   2.168611   1.095629   2.531057   3.082580
     7  Si   3.825914   2.855320   1.860706   3.094291   3.061230
     8  H    2.509497   2.165588   1.095203   3.084740   2.536007
     9  O    4.539322   3.530395   3.029459   3.170175   3.840226
    10  O    4.305591   3.325465   2.796515   3.732257   2.951029
    11  H    4.967824   4.131166   2.800482   4.425646   4.429988
    12  H    4.317468   3.319823   3.255103   2.725739   3.571185
    13  C    5.684750   4.682205   4.165497   4.968124   4.222805
    14  H    6.058065   5.127525   4.793101   5.505788   4.466160
    15  H    6.325809   5.352342   4.553304   5.688036   5.026552
    16  H    6.052205   4.988039   4.621051   5.038862   4.567232
                    6          7          8          9         10
     6  H    0.000000
     7  Si   2.431227   0.000000
     8  H    1.751203   2.425459   0.000000
     9  O    3.250000   1.773541   3.932138   0.000000
    10  O    3.721316   1.642579   2.980401   2.830152   0.000000
    11  H    2.998743   1.485517   3.039282   2.563184   2.563295
    12  H    3.536520   2.373876   4.244297   0.958718   3.154444
    13  C    5.016393   2.693482   4.323125   3.422001   1.408423
    14  H    5.747942   3.586776   4.803982   4.402519   2.035757
    15  H    5.279056   2.964183   4.603011   3.785000   2.077348
    16  H    5.394604   3.019137   4.998138   3.132974   2.075705
                   11         12         13         14         15
    11  H    0.000000
    12  H    3.437656   0.000000
    13  C    3.159210   3.786711   0.000000
    14  H    4.119255   4.642381   1.091418   0.000000
    15  H    2.877355   4.360513   1.096704   1.775410   0.000000
    16  H    3.578733   3.375327   1.094116   1.775752   1.776168
                   16
    16  H    0.000000
 Stoichiometry    C3H10O2Si
 Framework group  C1[X(C3H10O2Si)]
 Deg. of freedom    42
 Full point group                 C1      NOp   1
 Largest Abelian subgroup         C1      NOp   1
 Largest concise Abelian subgroup C1      NOp   1
                         Standard orientation:                         
 ---------------------------------------------------------------------
 Center     Atomic      Atomic             Coordinates (Angstroms)
 Number     Number       Type             X           Y           Z
 ---------------------------------------------------------------------
      1          1           0       -3.233220   -1.172283   -0.559179
      2          6           0       -2.236994   -0.741797   -0.689044
      3          6           0       -1.623861   -0.330211    0.648772
      4          1           0       -2.346437    0.112878   -1.363482
      5          1           0       -1.618259   -1.486244   -1.196168
      6          1           0       -2.259034    0.409458    1.148618
      7         14           0        0.090488    0.382332    0.524220
      8          1           0       -1.572774   -1.192286    1.322334
      9          8           0        0.160535    1.841331   -0.481695
     10          8           0        1.031142   -0.821367   -0.079392
     11          1           0        0.629173    0.839986    1.830793
     12          1           0       -0.192564    1.783335   -1.371132
     13          6           0        2.424752   -0.714245   -0.252682
     14          1           0        2.803607   -1.677571   -0.598611
     15          1           0        2.927387   -0.461090    0.688609
     16          1           0        2.678486    0.048974   -0.994441
 ---------------------------------------------------------------------
 Rotational constants (GHZ):      3.8262325      1.8909274      1.5515413
 Standard basis: def2TZVP (5D, 7F)
 There are   252 symmetry adapted basis functions of A   symmetry.
 Integral buffers will be    131072 words long.
 Raffenetti 2 integral format.
 Two-electron integral symmetry is turned on.
   252 basis functions,   404 primitive gaussians,   282 cartesian basis functions
    29 alpha electrons       29 beta electrons
       nuclear repulsion energy       325.4189658358 Hartrees.
 NAtoms=   16 NActive=   16 NUniq=   16 SFac= 1.00D+00 NAtFMM=   60 NAOKFM=F Big=F
 One-electron integrals computed using PRISM.
   1 Symmetry operations used in ECPInt.
 ECPInt:  NShTT=    5886 NPrTT=   17754 LenC2=    5777 LenP2D=   13887.
 LDataN:  DoStor=T MaxTD1= 6 Len=  172
 NBasis=   252 RedAO= T  NBF=   252
 NBsUse=   252 1.00D-06 NBFU=   252
 Harris functional with IExCor= 1009 diagonalized for initial guess.
 ExpMin= 7.01D-02 ExpMax= 4.48D+04 ExpMxC= 1.53D+03 IAcc=2 IRadAn=         4 AccDes= 0.00D+00
 HarFok:  IExCor= 1009 AccDes= 0.00D+00 IRadAn=         4 IDoV= 1
 ScaDFX=  1.000000  1.000000  1.000000  1.000000
 FoFCou: FMM=F IPFlag=           0 FMFlag=      100000 FMFlg1=           0
         NFxFlg=           0 DoJE=T BraDBF=F KetDBF=T FulRan=T
         Omega=  0.000000  0.000000  1.000000  0.000000  0.000000 ICntrl=     500 IOpCl=  0
         NMat0=    1 NMatS0=    1 NMatT0=    0 NMatD0=    1 NMtDS0=    0 NMtDT0=    0
         I1Cent=           4 NGrid=           0.
 Petite list used in FoFCou.
 Initial guess orbital symmetries:
       Occupied  (A) (A) (A) (A) (A) (A) (A) (A) (A) (A) (A) (A)
                 (A) (A) (A) (A) (A) (A) (A) (A) (A) (A) (A) (A)
                 (A) (A) (A) (A) (A)
       Virtual   (A) (A) (A) (A) (A) (A) (A) (A) (A) (A) (A) (A)
                 (A) (A) (A) (A) (A) (A) (A) (A) (A) (A) (A) (A)
                 (A) (A) (A) (A) (A) (A) (A) (A) (A) (A) (A) (A)
                 (A) (A) (A) (A) (A) (A) (A) (A) (A) (A) (A) (A)
                 (A) (A) (A) (A) (A) (A) (A) (A) (A) (A) (A) (A)
                 (A) (A) (A) (A) (A) (A) (A) (A) (A) (A) (A) (A)
                 (A) (A) (A) (A) (A) (A) (A) (A) (A) (A) (A) (A)
                 (A) (A) (A) (A) (A) (A) (A) (A) (A) (A) (A) (A)
                 (A) (A) (A) (A) (A) (A) (A) (A) (A) (A) (A) (A)
                 (A) (A) (A) (A) (A) (A) (A) (A) (A) (A) (A) (A)
                 (A) (A) (A) (A) (A) (A) (A) (A) (A) (A) (A) (A)
                 (A) (A) (A) (A) (A) (A) (A) (A) (A) (A) (A) (A)
                 (A) (A) (A) (A) (A) (A) (A) (A) (A) (A) (A) (A)
                 (A) (A) (A) (A) (A) (A) (A) (A) (A) (A) (A) (A)
                 (A) (A) (A) (A) (A) (A) (A) (A) (A) (A) (A) (A)
                 (A) (A) (A) (A) (A) (A) (A) (A) (A) (A) (A) (A)
                 (A) (A) (A) (A) (A) (A) (A) (A) (A) (A) (A) (A)
                 (A) (A) (A) (A) (A) (A) (A) (A) (A) (A) (A) (A)
                 (A) (A) (A) (A) (A) (A) (A)
 The electronic state of the initial guess is 1-A.
 Requested convergence on RMS density matrix=1.00D-08 within 128 cycles.
 Requested convergence on MAX density matrix=1.00D-06.
 Requested convergence on             energy=1.00D-06.
 No special actions if energy rises.
 Integral accuracy reduced to 1.0D-05 until final iterations.
 Initial convergence to 1.0D-05 achieved.  Increase integral accuracy.
 SCF Done:  E(RPBE1PBE) =  -560.054141765     A.U. after   13 cycles
             Convg  =    0.4445D-08             -V/T =  2.0036

 **********************************************************************

            Population analysis using the SCF density.

 **********************************************************************

 Orbital symmetries:
       Occupied  (A) (A) (A) (A) (A) (A) (A) (A) (A) (A) (A) (A)
                 (A) (A) (A) (A) (A) (A) (A) (A) (A) (A) (A) (A)
                 (A) (A) (A) (A) (A)
       Virtual   (A) (A) (A) (A) (A) (A) (A) (A) (A) (A) (A) (A)
                 (A) (A) (A) (A) (A) (A) (A) (A) (A) (A) (A) (A)
                 (A) (A) (A) (A) (A) (A) (A) (A) (A) (A) (A) (A)
                 (A) (A) (A) (A) (A) (A) (A) (A) (A) (A) (A) (A)
                 (A) (A) (A) (A) (A) (A) (A) (A) (A) (A) (A) (A)
                 (A) (A) (A) (A) (A) (A) (A) (A) (A) (A) (A) (A)
                 (A) (A) (A) (A) (A) (A) (A) (A) (A) (A) (A) (A)
                 (A) (A) (A) (A) (A) (A) (A) (A) (A) (A) (A) (A)
                 (A) (A) (A) (A) (A) (A) (A) (A) (A) (A) (A) (A)
                 (A) (A) (A) (A) (A) (A) (A) (A) (A) (A) (A) (A)
                 (A) (A) (A) (A) (A) (A) (A) (A) (A) (A) (A) (A)
                 (A) (A) (A) (A) (A) (A) (A) (A) (A) (A) (A) (A)
                 (A) (A) (A) (A) (A) (A) (A) (A) (A) (A) (A) (A)
                 (A) (A) (A) (A) (A) (A) (A) (A) (A) (A) (A) (A)
                 (A) (A) (A) (A) (A) (A) (A) (A) (A) (A) (A) (A)
                 (A) (A) (A) (A) (A) (A) (A) (A) (A) (A) (A) (A)
                 (A) (A) (A) (A) (A) (A) (A) (A) (A) (A) (A) (A)
                 (A) (A) (A) (A) (A) (A) (A) (A) (A) (A) (A) (A)
                 (A) (A) (A) (A) (A) (A) (A)
 The electronic state is 1-A.
 Alpha  occ. eigenvalues --  -66.26796 -19.20616 -19.19427 -10.26676 -10.21860
 Alpha  occ. eigenvalues --  -10.21377  -5.34212  -3.67740  -3.67637  -3.67482
 Alpha  occ. eigenvalues --   -1.04507  -0.99929  -0.78486  -0.70816  -0.64300
 Alpha  occ. eigenvalues --   -0.55427  -0.50497  -0.47106  -0.46831  -0.46030
 Alpha  occ. eigenvalues --   -0.43760  -0.41378  -0.38142  -0.36982  -0.36371
 Alpha  occ. eigenvalues --   -0.34527  -0.31832  -0.30680  -0.30072
 Alpha virt. eigenvalues --    0.02212   0.05066   0.05752   0.07788   0.08864
 Alpha virt. eigenvalues --    0.09888   0.10431   0.10968   0.12149   0.13271
 Alpha virt. eigenvalues --    0.13543   0.15028   0.15616   0.16117   0.19041
 Alpha virt. eigenvalues --    0.21072   0.21852   0.23084   0.24373   0.24880
 Alpha virt. eigenvalues --    0.26598   0.27453   0.28645   0.29555   0.30836
 Alpha virt. eigenvalues --    0.32496   0.36584   0.39221   0.39928   0.40556
 Alpha virt. eigenvalues --    0.41790   0.42363   0.43942   0.45127   0.45401
 Alpha virt. eigenvalues --    0.45962   0.47318   0.47798   0.49631   0.49950
 Alpha virt. eigenvalues --    0.50581   0.53263   0.55336   0.56626   0.60424
 Alpha virt. eigenvalues --    0.60723   0.62669   0.64433   0.65738   0.68081
 Alpha virt. eigenvalues --    0.73183   0.73977   0.74557   0.77160   0.80187
 Alpha virt. eigenvalues --    0.82192   0.83590   0.86192   0.87663   0.91710
 Alpha virt. eigenvalues --    0.93042   0.95239   0.96380   0.99061   1.00664
 Alpha virt. eigenvalues --    1.03362   1.05774   1.06698   1.08492   1.11375
 Alpha virt. eigenvalues --    1.12018   1.12829   1.15233   1.18354   1.20111
 Alpha virt. eigenvalues --    1.23924   1.27292   1.32110   1.36031   1.40543
 Alpha virt. eigenvalues --    1.41346   1.46149   1.46518   1.49924   1.52126
 Alpha virt. eigenvalues --    1.53038   1.54214   1.54853   1.55980   1.57558
 Alpha virt. eigenvalues --    1.59330   1.61877   1.62771   1.63069   1.65189
 Alpha virt. eigenvalues --    1.67613   1.70265   1.73953   1.76300   1.78495
 Alpha virt. eigenvalues --    1.80325   1.82873   1.86354   1.88972   1.90804
 Alpha virt. eigenvalues --    1.94486   1.95074   1.99033   1.99467   2.02099
 Alpha virt. eigenvalues --    2.03953   2.07183   2.09130   2.11929   2.13788
 Alpha virt. eigenvalues --    2.16600   2.17633   2.25961   2.27767   2.29733
 Alpha virt. eigenvalues --    2.31239   2.31825   2.32856   2.34951   2.35425
 Alpha virt. eigenvalues --    2.35674   2.39815   2.42813   2.46689   2.48510
 Alpha virt. eigenvalues --    2.50700   2.51107   2.54407   2.55907   2.58031
 Alpha virt. eigenvalues --    2.59161   2.61034   2.64626   2.66659   2.70404
 Alpha virt. eigenvalues --    2.72309   2.75958   2.79547   2.81063   2.83152
 Alpha virt. eigenvalues --    2.84284   2.92301   2.93189   2.99011   2.99678
 Alpha virt. eigenvalues --    3.04746   3.08597   3.09629   3.11208   3.14643
 Alpha virt. eigenvalues --    3.19665   3.22158   3.22696   3.26192   3.29616
 Alpha virt. eigenvalues --    3.31427   3.32409   3.36190   3.39749   3.40344
 Alpha virt. eigenvalues --    3.44207   3.45588   3.45889   3.52723   3.53599
 Alpha virt. eigenvalues --    3.57861   3.59966   3.61968   3.64775   3.76408
 Alpha virt. eigenvalues --    3.80920   3.84473   3.92224   3.95433   4.02627
 Alpha virt. eigenvalues --    4.18750   4.23918   4.24660   4.33970   4.36639
 Alpha virt. eigenvalues --    4.41495   4.46605   4.53091   4.56728   4.78366
 Alpha virt. eigenvalues --    5.13638   5.16839   5.17415   5.18425   5.25245
 Alpha virt. eigenvalues --    5.28837   5.37577   5.41055   5.45358   5.50842
 Alpha virt. eigenvalues --    5.79142   5.85913   6.03066   6.21760   6.37915
 Alpha virt. eigenvalues --    6.40597   6.51047   6.56163   6.57504   6.60237
 Alpha virt. eigenvalues --    6.62398   6.76569   6.80981   6.93286   7.04830
 Alpha virt. eigenvalues --    7.13068   7.19336  11.73791  22.36832  22.40654
 Alpha virt. eigenvalues --   22.44726  43.55806  43.93565
          Condensed to atoms (all electrons):
              1          2          3          4          5          6
     1  H    0.552041   0.407069  -0.033730  -0.025176  -0.024819  -0.006891
     2  C    0.407069   4.941457   0.318108   0.399576   0.412106  -0.027214
     3  C   -0.033730   0.318108   5.012316  -0.043409  -0.038659   0.388338
     4  H   -0.025176   0.399576  -0.043409   0.578210  -0.026456  -0.004969
     5  H   -0.024819   0.412106  -0.038659  -0.026456   0.534323   0.007623
     6  H   -0.006891  -0.027214   0.388338  -0.004969   0.007623   0.574530
     7  Si   0.008088  -0.022427   0.418171  -0.003891  -0.009250  -0.029999
     8  H   -0.006650  -0.029205   0.371327   0.008801  -0.004073  -0.027053
     9  O    0.000034  -0.004586  -0.031881   0.005378  -0.000348  -0.000786
    10  O    0.000024  -0.005177  -0.030859   0.000397   0.007659   0.001321
    11  H   -0.000118   0.001588  -0.033621   0.000210   0.000390   0.001158
    12  H   -0.000060  -0.000184  -0.001683   0.001805  -0.000007   0.000045
    13  C    0.000012  -0.000160   0.001673   0.000121  -0.000018  -0.000124
    14  H   -0.000004   0.000226  -0.000399  -0.000004  -0.000164   0.000000
    15  H    0.000001  -0.000048   0.000027  -0.000002   0.000081   0.000004
    16  H    0.000000  -0.000100   0.000773  -0.000019   0.000000   0.000014
              7          8          9         10         11         12
     1  H    0.008088  -0.006650   0.000034   0.000024  -0.000118  -0.000060
     2  C   -0.022427  -0.029205  -0.004586  -0.005177   0.001588  -0.000184
     3  C    0.418171   0.371327  -0.031881  -0.030859  -0.033621  -0.001683
     4  H   -0.003891   0.008801   0.005378   0.000397   0.000210   0.001805
     5  H   -0.009250  -0.004073  -0.000348   0.007659   0.000390  -0.000007
     6  H   -0.029999  -0.027053  -0.000786   0.001321   0.001158   0.000045
     7  Si  11.922050  -0.013337   0.423034   0.447479   0.391192  -0.025005
     8  H   -0.013337   0.575911   0.001664   0.001803   0.000822  -0.000067
     9  O    0.423034   0.001664   7.942452  -0.029184  -0.014536   0.293313
    10  O    0.447479   0.001803  -0.029184   7.831247  -0.025459  -0.000644
    11  H    0.391192   0.000822  -0.014536  -0.025459   0.716857   0.003281
    12  H   -0.025005  -0.000067   0.293313  -0.000644   0.003281   0.414687
    13  C   -0.051610   0.000109  -0.007109   0.260935   0.002463   0.000514
    14  H    0.008190   0.000000   0.000127  -0.040755  -0.000217   0.000017
    15  H   -0.017642  -0.000024  -0.000388  -0.042307   0.009605   0.000006
    16  H   -0.003510  -0.000017   0.007045  -0.042891  -0.001830   0.000158
             13         14         15         16
     1  H    0.000012  -0.000004   0.000001   0.000000
     2  C   -0.000160   0.000226  -0.000048  -0.000100
     3  C    0.001673  -0.000399   0.000027   0.000773
     4  H    0.000121  -0.000004  -0.000002  -0.000019
     5  H   -0.000018  -0.000164   0.000081   0.000000
     6  H   -0.000124   0.000000   0.000004   0.000014
     7  Si  -0.051610   0.008190  -0.017642  -0.003510
     8  H    0.000109   0.000000  -0.000024  -0.000017
     9  O   -0.007109   0.000127  -0.000388   0.007045
    10  O    0.260935  -0.040755  -0.042307  -0.042891
    11  H    0.002463  -0.000217   0.009605  -0.001830
    12  H    0.000514   0.000017   0.000006   0.000158
    13  C    4.774819   0.400859   0.417882   0.412114
    14  H    0.400859   0.565743  -0.030382  -0.032669
    15  H    0.417882  -0.030382   0.591719  -0.046363
    16  H    0.412114  -0.032669  -0.046363   0.582462
 Mulliken atomic charges:
              1
     1  H    0.130179
     2  C   -0.391031
     3  C   -0.296489
     4  H    0.109430
     5  H    0.141611
     6  H    0.124003
     7  Si   0.558467
     8  H    0.119989
     9  O   -0.584228
    10  O   -0.333589
    11  H   -0.051785
    12  H    0.313825
    13  C   -0.212478
    14  H    0.129433
    15  H    0.117831
    16  H    0.124833
 Sum of Mulliken atomic charges =   0.00000
 Mulliken charges with hydrogens summed into heavy atoms:
              1
     2  C   -0.009811
     3  C   -0.052497
     7  Si   0.506683
     9  O   -0.270404
    10  O   -0.333589
    13  C    0.159619
 Sum of Mulliken charges with hydrogens summed into heavy atoms =   0.00000
 Electronic spatial extent (au):  <R**2>=            881.7016
 Charge=              0.0000 electrons
 Dipole moment (field-independent basis, Debye):
    X=             -0.2964    Y=             -0.9807    Z=             -0.6218  Tot=              1.1985
 Quadrupole moment (field-independent basis, Debye-Ang):
   XX=            -40.8263   YY=            -50.0819   ZZ=            -42.8143
   XY=             -1.7638   XZ=             -0.2390   YZ=             -1.8069
 Traceless Quadrupole moment (field-independent basis, Debye-Ang):
   XX=              3.7478   YY=             -5.5077   ZZ=              1.7599
   XY=             -1.7638   XZ=             -0.2390   YZ=             -1.8069
 Octapole moment (field-independent basis, Debye-Ang**2):
  XXX=             14.3400  YYY=             -8.6352  ZZZ=             -9.5561  XYY=             -1.3501
  XXY=             -2.5657  XXZ=             -1.3643  XZZ=              0.7457  YZZ=              5.3773
  YYZ=             -4.0764  XYZ=              2.0090
 Hexadecapole moment (field-independent basis, Debye-Ang**3):
 XXXX=           -701.0277 YYYY=           -310.6093 ZZZZ=           -172.0209 XXXY=            -12.3816
 XXXZ=             -7.3543 YYYX=            -12.7213 YYYZ=             -8.8875 ZZZX=             -3.1090
 ZZZY=            -18.0841 XXYY=           -164.7816 XXZZ=           -150.7346 YYZZ=            -66.2630
 XXYZ=             -0.1685 YYXZ=             -1.2056 ZZXY=             -4.9918
 N-N= 3.254189658358D+02 E-N=-1.974585992907D+03  KE= 5.580418400266D+02
 1\1\GINC-TARSUS2\SP\RPBE1PBE\def2TZVP\C3H10O2Si1\RENATO\10-Aug-2018\0\
 \#SP PBE1PBE/Def2TZVP geom=connectivity\\Structure: 236\\0,1\H,0,0.,0.
 ,0.\C,0,1.093,0.,0.\C,0,1.655,1.421,0.\H,0,1.41,-0.56,-0.885\H,0,1.424
 ,-0.557,0.88\H,0,1.308,1.969,-0.883\Si,0,3.513,1.515,0.035\H,0,1.282,1
 .975,0.868\O,0,4.271,0.721,-1.358\O,0,3.968,0.824,1.454\H,0,4.029,2.90
 6,-0.04\H,0,4.032,-0.191,-1.532\C,0,5.301,0.766,1.905\H,0,5.308,0.322,
 2.902\H,0,5.747,1.766,1.967\H,0,5.921,0.153,1.244\\Version=EM64L-G09Re
 vC.01\State=1-A\HF=-560.0541418\RMSD=4.445e-09\Dipole=-0.2291786,-0.30
 17333,0.2806312\Quadrupole=0.9208183,0.8136442,-1.7344626,-1.0461607,3
 .1571833,1.832097\PG=C01 [X(C3H10O2Si1)]\\@


 "WHERE SHALL I START, PLEASE YOUR MAJESTY?" HE ASKED.
 "BEGIN AT THE BEGINNING," THE KING SAID GRAVELY,
 "AND GO ON TILL YOU COME TO THE END: THEN STOP." 

                                      -- LEWIS CARROLL
 Job cpu time:  0 days  0 hours 13 minutes 39.7 seconds.
 File lengths (MBytes):  RWF=     40 Int=      0 D2E=      0 Chk=      3 Scr=      1
 Normal termination of Gaussian 09 at Fri Aug 10 05:51:18 2018.
