 Entering Gaussian System, Link 0=g09
 Initial command:
 /usr/local/gaussian09/g09/l1.exe /scratch/renato/Gau-11775.inp -scrdir=/scratch/renato/
 Entering Link 1 = /usr/local/gaussian09/g09/l1.exe PID=     11777.
  
 Copyright (c) 1988,1990,1992,1993,1995,1998,2003,2009,2011,
            Gaussian, Inc.  All Rights Reserved.
  
 This is part of the Gaussian(R) 09 program.  It is based on
 the Gaussian(R) 03 system (copyright 2003, Gaussian, Inc.),
 the Gaussian(R) 98 system (copyright 1998, Gaussian, Inc.),
 the Gaussian(R) 94 system (copyright 1995, Gaussian, Inc.),
 the Gaussian 92(TM) system (copyright 1992, Gaussian, Inc.),
 the Gaussian 90(TM) system (copyright 1990, Gaussian, Inc.),
 the Gaussian 88(TM) system (copyright 1988, Gaussian, Inc.),
 the Gaussian 86(TM) system (copyright 1986, Carnegie Mellon
 University), and the Gaussian 82(TM) system (copyright 1983,
 Carnegie Mellon University). Gaussian is a federally registered
 trademark of Gaussian, Inc.
  
 This software contains proprietary and confidential information,
 including trade secrets, belonging to Gaussian, Inc.
  
 This software is provided under written license and may be
 used, copied, transmitted, or stored only in accord with that
 written license.
  
 The following legend is applicable only to US Government
 contracts under FAR:
  
                    RESTRICTED RIGHTS LEGEND
  
 Use, reproduction and disclosure by the US Government is
 subject to restrictions as set forth in subparagraphs (a)
 and (c) of the Commercial Computer Software - Restricted
 Rights clause in FAR 52.227-19.
  
 Gaussian, Inc.
 340 Quinnipiac St., Bldg. 40, Wallingford CT 06492
  
  
 ---------------------------------------------------------------
 Warning -- This program may not be used in any manner that
 competes with the business of Gaussian, Inc. or will provide
 assistance to any competitor of Gaussian, Inc.  The licensee
 of this program is prohibited from giving any competitor of
 Gaussian, Inc. access to this program.  By using this program,
 the user acknowledges that Gaussian, Inc. is engaged in the
 business of creating and licensing software in the field of
 computational chemistry and represents and warrants to the
 licensee that it is not a competitor of Gaussian, Inc. and that
 it will not use this program in any manner prohibited above.
 ---------------------------------------------------------------
  

 Cite this work as:
 Gaussian 09, Revision C.01,
 M. J. Frisch, G. W. Trucks, H. B. Schlegel, G. E. Scuseria, 
 M. A. Robb, J. R. Cheeseman, G. Scalmani, V. Barone, B. Mennucci, 
 G. A. Petersson, H. Nakatsuji, M. Caricato, X. Li, H. P. Hratchian, 
 A. F. Izmaylov, J. Bloino, G. Zheng, J. L. Sonnenberg, M. Hada, 
 M. Ehara, K. Toyota, R. Fukuda, J. Hasegawa, M. Ishida, T. Nakajima, 
 Y. Honda, O. Kitao, H. Nakai, T. Vreven, J. A. Montgomery, Jr., 
 J. E. Peralta, F. Ogliaro, M. Bearpark, J. J. Heyd, E. Brothers, 
 K. N. Kudin, V. N. Staroverov, T. Keith, R. Kobayashi, J. Normand, 
 K. Raghavachari, A. Rendell, J. C. Burant, S. S. Iyengar, J. Tomasi, 
 M. Cossi, N. Rega, J. M. Millam, M. Klene, J. E. Knox, J. B. Cross, 
 V. Bakken, C. Adamo, J. Jaramillo, R. Gomperts, R. E. Stratmann, 
 O. Yazyev, A. J. Austin, R. Cammi, C. Pomelli, J. W. Ochterski, 
 R. L. Martin, K. Morokuma, V. G. Zakrzewski, G. A. Voth, 
 P. Salvador, J. J. Dannenberg, S. Dapprich, A. D. Daniels, 
 O. Farkas, J. B. Foresman, J. V. Ortiz, J. Cioslowski, 
 and D. J. Fox, Gaussian, Inc., Wallingford CT, 2010.
 
 ******************************************
 Gaussian 09:  EM64L-G09RevC.01 23-Sep-2011
                10-Aug-2018 
 ******************************************
 %nproc=2
 Will use up to    2 processors via shared memory.
 %mem=256MB
 %RWF=bm3.rwf
 %chk=bm3297
 %NoSave
 --------------------------------------
 #SP PBE1PBE/Def2TZVP geom=connectivity
 --------------------------------------
 1/38=1,57=2/1;
 2/12=2,17=6,18=5,40=1/2;
 3/5=44,7=101,11=2,16=1,25=1,30=1,74=-13/1,2,3;
 4//1;
 5/5=2,38=5/2;
 6/7=2,8=2,9=2,10=2,28=1/1;
 99/5=1,9=1/99;
 --------------
 Structure: 297
 --------------
 Charge =  0 Multiplicity = 1
 Symbolic Z-Matrix:
 H                     0.        0.        0. 
 C                     1.093     0.        0. 
 C                     1.655     1.421     0. 
 H                     1.41     -0.56     -0.885 
 H                     1.424    -0.557     0.88 
 H                     1.308     1.969    -0.883 
 Si                    3.513     1.515     0.035 
 H                     1.282     1.975     0.868 
 O                     4.324     0.666    -1.453 
 O                     3.968     0.824     1.454 
 H                     4.029     2.906    -0.04 
 H                     4.084    -0.246    -1.627 
 C                     5.301     0.766     1.905 
 H                     5.308     0.322     2.902 
 H                     5.747     1.766     1.967 
 H                     5.921     0.153     1.244 
 
                          Input orientation:                          
 ---------------------------------------------------------------------
 Center     Atomic      Atomic             Coordinates (Angstroms)
 Number     Number       Type             X           Y           Z
 ---------------------------------------------------------------------
      1          1           0        0.000000    0.000000    0.000000
      2          6           0        1.093000    0.000000    0.000000
      3          6           0        1.655000    1.421000    0.000000
      4          1           0        1.410000   -0.560000   -0.885000
      5          1           0        1.424000   -0.557000    0.880000
      6          1           0        1.308000    1.969000   -0.883000
      7         14           0        3.513000    1.515000    0.035000
      8          1           0        1.282000    1.975000    0.868000
      9          8           0        4.324000    0.666000   -1.453000
     10          8           0        3.968000    0.824000    1.454000
     11          1           0        4.029000    2.906000   -0.040000
     12          1           0        4.084000   -0.246000   -1.627000
     13          6           0        5.301000    0.766000    1.905000
     14          1           0        5.308000    0.322000    2.902000
     15          1           0        5.747000    1.766000    1.967000
     16          1           0        5.921000    0.153000    1.244000
 ---------------------------------------------------------------------
                    Distance matrix (angstroms):
                    1          2          3          4          5
     1  H    0.000000
     2  C    1.093000   0.000000
     3  C    2.181345   1.528098   0.000000
     4  H    1.756395   1.094218   2.183486   0.000000
     5  H    1.764207   1.092799   2.177210   1.765058   0.000000
     6  H    2.523393   2.168611   1.095629   2.531057   3.082580
     7  Si   3.825914   2.855320   1.860706   3.094291   3.061230
     8  H    2.509497   2.165588   1.095203   3.084740   2.536007
     9  O    4.609961   3.604737   3.131261   3.212024   3.917731
    10  O    4.305591   3.325465   2.796515   3.732257   2.951029
    11  H    4.967824   4.131166   2.800482   4.425646   4.429988
    12  H    4.403033   3.413755   3.365421   2.792747   3.668429
    13  C    5.684750   4.682205   4.165497   4.968124   4.222805
    14  H    6.058065   5.127525   4.793101   5.505788   4.466160
    15  H    6.325809   5.352342   4.553304   5.688036   5.026552
    16  H    6.052205   4.988039   4.621051   5.038862   4.567232
                    6          7          8          9         10
     6  H    0.000000
     7  Si   2.431227   0.000000
     8  H    1.751203   2.425459   0.000000
     9  O    3.334511   1.895433   4.044043   0.000000
    10  O    3.721316   1.642579   2.980401   2.932976   0.000000
    11  H    2.998743   1.485517   3.039282   2.664807   2.563295
    12  H    3.628490   2.487852   4.359939   0.958968   3.263574
    13  C    5.016393   2.693482   4.323125   3.498670   1.408423
    14  H    5.747942   3.586776   4.803982   4.478015   2.035757
    15  H    5.279056   2.964183   4.603011   3.864108   2.077348
    16  H    5.394604   3.019137   4.998138   3.176065   2.075705
                   11         12         13         14         15
    11  H    0.000000
    12  H    3.529405   0.000000
    13  C    3.159210   3.870434   0.000000
    14  H    4.119255   4.725742   1.091418   0.000000
    15  H    2.877355   4.441908   1.096704   1.775410   0.000000
    16  H    3.578733   3.431678   1.094116   1.775752   1.776168
                   16
    16  H    0.000000
 Stoichiometry    C3H10O2Si
 Framework group  C1[X(C3H10O2Si)]
 Deg. of freedom    42
 Full point group                 C1      NOp   1
 Largest Abelian subgroup         C1      NOp   1
 Largest concise Abelian subgroup C1      NOp   1
                         Standard orientation:                         
 ---------------------------------------------------------------------
 Center     Atomic      Atomic             Coordinates (Angstroms)
 Number     Number       Type             X           Y           Z
 ---------------------------------------------------------------------
      1          1           0       -3.236584   -1.147295   -0.615885
      2          6           0       -2.239139   -0.712878   -0.720932
      3          6           0       -1.626288   -0.377390    0.638092
      4          1           0       -2.345742    0.178018   -1.347234
      5          1           0       -1.621796   -1.429786   -1.267869
      6          1           0       -2.260074    0.335192    1.177485
      7         14           0        0.089990    0.336498    0.554536
      8          1           0       -1.578059   -1.275474    1.263061
      9          8           0        0.170970    1.952211   -0.433180
     10          8           0        1.028178   -0.834465   -0.113832
     11          1           0        0.628541    0.719904    1.884846
     12          1           0       -0.182307    1.943938   -1.324665
     13          6           0        2.422227   -0.721550   -0.279759
     14          1           0        2.798975   -1.665281   -0.678038
     15          1           0        2.924572   -0.522066    0.674503
     16          1           0        2.678634    0.080807   -0.978020
 ---------------------------------------------------------------------
 Rotational constants (GHZ):      3.6165854      1.8829834      1.5208496
 Standard basis: def2TZVP (5D, 7F)
 There are   252 symmetry adapted basis functions of A   symmetry.
 Integral buffers will be    131072 words long.
 Raffenetti 2 integral format.
 Two-electron integral symmetry is turned on.
   252 basis functions,   404 primitive gaussians,   282 cartesian basis functions
    29 alpha electrons       29 beta electrons
       nuclear repulsion energy       321.7357398005 Hartrees.
 NAtoms=   16 NActive=   16 NUniq=   16 SFac= 1.00D+00 NAtFMM=   60 NAOKFM=F Big=F
 One-electron integrals computed using PRISM.
   1 Symmetry operations used in ECPInt.
 ECPInt:  NShTT=    5886 NPrTT=   17754 LenC2=    5772 LenP2D=   13850.
 LDataN:  DoStor=T MaxTD1= 6 Len=  172
 NBasis=   252 RedAO= T  NBF=   252
 NBsUse=   252 1.00D-06 NBFU=   252
 Harris functional with IExCor= 1009 diagonalized for initial guess.
 ExpMin= 7.01D-02 ExpMax= 4.48D+04 ExpMxC= 1.53D+03 IAcc=2 IRadAn=         4 AccDes= 0.00D+00
 HarFok:  IExCor= 1009 AccDes= 0.00D+00 IRadAn=         4 IDoV= 1
 ScaDFX=  1.000000  1.000000  1.000000  1.000000
 FoFCou: FMM=F IPFlag=           0 FMFlag=      100000 FMFlg1=           0
         NFxFlg=           0 DoJE=T BraDBF=F KetDBF=T FulRan=T
         Omega=  0.000000  0.000000  1.000000  0.000000  0.000000 ICntrl=     500 IOpCl=  0
         NMat0=    1 NMatS0=    1 NMatT0=    0 NMatD0=    1 NMtDS0=    0 NMtDT0=    0
         I1Cent=           4 NGrid=           0.
 Petite list used in FoFCou.
 Initial guess orbital symmetries:
       Occupied  (A) (A) (A) (A) (A) (A) (A) (A) (A) (A) (A) (A)
                 (A) (A) (A) (A) (A) (A) (A) (A) (A) (A) (A) (A)
                 (A) (A) (A) (A) (A)
       Virtual   (A) (A) (A) (A) (A) (A) (A) (A) (A) (A) (A) (A)
                 (A) (A) (A) (A) (A) (A) (A) (A) (A) (A) (A) (A)
                 (A) (A) (A) (A) (A) (A) (A) (A) (A) (A) (A) (A)
                 (A) (A) (A) (A) (A) (A) (A) (A) (A) (A) (A) (A)
                 (A) (A) (A) (A) (A) (A) (A) (A) (A) (A) (A) (A)
                 (A) (A) (A) (A) (A) (A) (A) (A) (A) (A) (A) (A)
                 (A) (A) (A) (A) (A) (A) (A) (A) (A) (A) (A) (A)
                 (A) (A) (A) (A) (A) (A) (A) (A) (A) (A) (A) (A)
                 (A) (A) (A) (A) (A) (A) (A) (A) (A) (A) (A) (A)
                 (A) (A) (A) (A) (A) (A) (A) (A) (A) (A) (A) (A)
                 (A) (A) (A) (A) (A) (A) (A) (A) (A) (A) (A) (A)
                 (A) (A) (A) (A) (A) (A) (A) (A) (A) (A) (A) (A)
                 (A) (A) (A) (A) (A) (A) (A) (A) (A) (A) (A) (A)
                 (A) (A) (A) (A) (A) (A) (A) (A) (A) (A) (A) (A)
                 (A) (A) (A) (A) (A) (A) (A) (A) (A) (A) (A) (A)
                 (A) (A) (A) (A) (A) (A) (A) (A) (A) (A) (A) (A)
                 (A) (A) (A) (A) (A) (A) (A) (A) (A) (A) (A) (A)
                 (A) (A) (A) (A) (A) (A) (A) (A) (A) (A) (A) (A)
                 (A) (A) (A) (A) (A) (A) (A)
 The electronic state of the initial guess is 1-A.
 Requested convergence on RMS density matrix=1.00D-08 within 128 cycles.
 Requested convergence on MAX density matrix=1.00D-06.
 Requested convergence on             energy=1.00D-06.
 No special actions if energy rises.
 Integral accuracy reduced to 1.0D-05 until final iterations.
 Initial convergence to 1.0D-05 achieved.  Increase integral accuracy.
 SCF Done:  E(RPBE1PBE) =  -560.038421250     A.U. after   14 cycles
             Convg  =    0.2558D-08             -V/T =  2.0038

 **********************************************************************

            Population analysis using the SCF density.

 **********************************************************************

 Orbital symmetries:
       Occupied  (A) (A) (A) (A) (A) (A) (A) (A) (A) (A) (A) (A)
                 (A) (A) (A) (A) (A) (A) (A) (A) (A) (A) (A) (A)
                 (A) (A) (A) (A) (A)
       Virtual   (A) (A) (A) (A) (A) (A) (A) (A) (A) (A) (A) (A)
                 (A) (A) (A) (A) (A) (A) (A) (A) (A) (A) (A) (A)
                 (A) (A) (A) (A) (A) (A) (A) (A) (A) (A) (A) (A)
                 (A) (A) (A) (A) (A) (A) (A) (A) (A) (A) (A) (A)
                 (A) (A) (A) (A) (A) (A) (A) (A) (A) (A) (A) (A)
                 (A) (A) (A) (A) (A) (A) (A) (A) (A) (A) (A) (A)
                 (A) (A) (A) (A) (A) (A) (A) (A) (A) (A) (A) (A)
                 (A) (A) (A) (A) (A) (A) (A) (A) (A) (A) (A) (A)
                 (A) (A) (A) (A) (A) (A) (A) (A) (A) (A) (A) (A)
                 (A) (A) (A) (A) (A) (A) (A) (A) (A) (A) (A) (A)
                 (A) (A) (A) (A) (A) (A) (A) (A) (A) (A) (A) (A)
                 (A) (A) (A) (A) (A) (A) (A) (A) (A) (A) (A) (A)
                 (A) (A) (A) (A) (A) (A) (A) (A) (A) (A) (A) (A)
                 (A) (A) (A) (A) (A) (A) (A) (A) (A) (A) (A) (A)
                 (A) (A) (A) (A) (A) (A) (A) (A) (A) (A) (A) (A)
                 (A) (A) (A) (A) (A) (A) (A) (A) (A) (A) (A) (A)
                 (A) (A) (A) (A) (A) (A) (A) (A) (A) (A) (A) (A)
                 (A) (A) (A) (A) (A) (A) (A) (A) (A) (A) (A) (A)
                 (A) (A) (A) (A) (A) (A) (A)
 The electronic state is 1-A.
 Alpha  occ. eigenvalues --  -66.27950 -19.21188 -19.18533 -10.26902 -10.21997
 Alpha  occ. eigenvalues --  -10.21860  -5.35238  -3.68778  -3.68662  -3.68491
 Alpha  occ. eigenvalues --   -1.04900  -0.97732  -0.78763  -0.71109  -0.64560
 Alpha  occ. eigenvalues --   -0.54965  -0.49429  -0.47359  -0.47042  -0.46100
 Alpha  occ. eigenvalues --   -0.43953  -0.41744  -0.38285  -0.36805  -0.35581
 Alpha  occ. eigenvalues --   -0.34063  -0.31479  -0.30709  -0.29999
 Alpha virt. eigenvalues --    0.01814   0.04501   0.05414   0.07560   0.08698
 Alpha virt. eigenvalues --    0.09294   0.10024   0.10613   0.11973   0.12817
 Alpha virt. eigenvalues --    0.13373   0.14648   0.15255   0.15843   0.18804
 Alpha virt. eigenvalues --    0.20745   0.21625   0.22647   0.24099   0.24729
 Alpha virt. eigenvalues --    0.26314   0.26586   0.28615   0.29617   0.30512
 Alpha virt. eigenvalues --    0.32305   0.36474   0.38942   0.39881   0.40599
 Alpha virt. eigenvalues --    0.41688   0.42244   0.43757   0.44812   0.45412
 Alpha virt. eigenvalues --    0.45702   0.47177   0.47722   0.48948   0.49605
 Alpha virt. eigenvalues --    0.50325   0.53175   0.55154   0.56503   0.60658
 Alpha virt. eigenvalues --    0.60677   0.62351   0.63386   0.65456   0.68135
 Alpha virt. eigenvalues --    0.72219   0.73515   0.73987   0.76493   0.79574
 Alpha virt. eigenvalues --    0.81437   0.83345   0.85985   0.87396   0.91540
 Alpha virt. eigenvalues --    0.93134   0.94768   0.95989   0.98791   1.00691
 Alpha virt. eigenvalues --    1.02345   1.04575   1.06429   1.07915   1.11072
 Alpha virt. eigenvalues --    1.11640   1.13076   1.14485   1.18140   1.18745
 Alpha virt. eigenvalues --    1.23043   1.26804   1.32070   1.35608   1.39944
 Alpha virt. eigenvalues --    1.40590   1.44725   1.46441   1.50288   1.51710
 Alpha virt. eigenvalues --    1.53106   1.53977   1.54379   1.55385   1.57319
 Alpha virt. eigenvalues --    1.58906   1.60395   1.62167   1.62913   1.63855
 Alpha virt. eigenvalues --    1.65871   1.69131   1.73175   1.75302   1.77676
 Alpha virt. eigenvalues --    1.79982   1.82553   1.86052   1.89360   1.90959
 Alpha virt. eigenvalues --    1.92959   1.94581   1.97633   1.98698   2.00565
 Alpha virt. eigenvalues --    2.02010   2.06171   2.07884   2.11841   2.12771
 Alpha virt. eigenvalues --    2.15872   2.16947   2.25214   2.26501   2.29110
 Alpha virt. eigenvalues --    2.29719   2.30769   2.32547   2.34680   2.35059
 Alpha virt. eigenvalues --    2.35374   2.39155   2.41910   2.45984   2.47803
 Alpha virt. eigenvalues --    2.50195   2.50621   2.54080   2.55685   2.57774
 Alpha virt. eigenvalues --    2.58808   2.60739   2.64016   2.66449   2.69830
 Alpha virt. eigenvalues --    2.71775   2.74797   2.77677   2.79575   2.81954
 Alpha virt. eigenvalues --    2.83089   2.91344   2.92119   2.96788   2.99377
 Alpha virt. eigenvalues --    3.03416   3.07957   3.09247   3.10874   3.14213
 Alpha virt. eigenvalues --    3.18484   3.21843   3.22256   3.25643   3.29319
 Alpha virt. eigenvalues --    3.30798   3.32127   3.34597   3.37949   3.39814
 Alpha virt. eigenvalues --    3.43904   3.45106   3.45553   3.52022   3.53342
 Alpha virt. eigenvalues --    3.57112   3.58712   3.61642   3.64500   3.76064
 Alpha virt. eigenvalues --    3.80615   3.82856   3.91838   3.95050   4.02128
 Alpha virt. eigenvalues --    4.18410   4.23656   4.24210   4.33701   4.36356
 Alpha virt. eigenvalues --    4.41290   4.46271   4.52754   4.56246   4.78053
 Alpha virt. eigenvalues --    5.13202   5.17776   5.18063   5.18723   5.24191
 Alpha virt. eigenvalues --    5.27833   5.36881   5.40246   5.45651   5.51084
 Alpha virt. eigenvalues --    5.78431   5.85208   6.02523   6.21823   6.32276
 Alpha virt. eigenvalues --    6.39789   6.49280   6.53339   6.54359   6.58941
 Alpha virt. eigenvalues --    6.59703   6.75785   6.79491   6.85396   7.03934
 Alpha virt. eigenvalues --    7.10447   7.17262  11.57085  22.36585  22.40339
 Alpha virt. eigenvalues --   22.44207  43.51032  43.92718
          Condensed to atoms (all electrons):
              1          2          3          4          5          6
     1  H    0.552748   0.405784  -0.033881  -0.024943  -0.024958  -0.006894
     2  C    0.405784   4.944492   0.320866   0.397821   0.411311  -0.025474
     3  C   -0.033881   0.320866   4.995686  -0.042200  -0.037783   0.389182
     4  H   -0.024943   0.397821  -0.042200   0.571355  -0.025382  -0.004972
     5  H   -0.024958   0.411311  -0.037783  -0.025382   0.534806   0.007505
     6  H   -0.006894  -0.025474   0.389182  -0.004972   0.007505   0.570885
     7  Si   0.008406  -0.025581   0.414130  -0.002089  -0.009987  -0.030901
     8  H   -0.006449  -0.030204   0.372064   0.008729  -0.004068  -0.027539
     9  O    0.000057  -0.005790  -0.026216   0.006035  -0.000309  -0.000680
    10  O    0.000030  -0.005280  -0.030006   0.000351   0.007710   0.001351
    11  H   -0.000121   0.001437  -0.032528   0.000209   0.000372   0.000991
    12  H   -0.000042  -0.000578  -0.001295   0.001625  -0.000031   0.000020
    13  C    0.000014  -0.000255   0.001453   0.000147   0.000029  -0.000123
    14  H   -0.000004   0.000231  -0.000388  -0.000006  -0.000165   0.000000
    15  H    0.000001  -0.000052   0.000073  -0.000002   0.000078   0.000003
    16  H    0.000000  -0.000068   0.000729  -0.000026  -0.000010   0.000015
              7          8          9         10         11         12
     1  H    0.008406  -0.006449   0.000057   0.000030  -0.000121  -0.000042
     2  C   -0.025581  -0.030204  -0.005790  -0.005280   0.001437  -0.000578
     3  C    0.414130   0.372064  -0.026216  -0.030006  -0.032528  -0.001295
     4  H   -0.002089   0.008729   0.006035   0.000351   0.000209   0.001625
     5  H   -0.009987  -0.004068  -0.000309   0.007710   0.000372  -0.000031
     6  H   -0.030901  -0.027539  -0.000680   0.001351   0.000991   0.000020
     7  Si  11.957343  -0.012548   0.384844   0.445988   0.390507  -0.023136
     8  H   -0.012548   0.573931   0.001459   0.001708   0.000856  -0.000079
     9  O    0.384844   0.001459   8.016204  -0.023695  -0.012863   0.287191
    10  O    0.445988   0.001708  -0.023695   7.819985  -0.024580  -0.000383
    11  H    0.390507   0.000856  -0.012863  -0.024580   0.704848   0.002602
    12  H   -0.023136  -0.000079   0.287191  -0.000383   0.002602   0.423811
    13  C   -0.053329   0.000135  -0.007120   0.259822   0.002469   0.000395
    14  H    0.008565   0.000001   0.000152  -0.040460  -0.000206   0.000014
    15  H   -0.017484  -0.000026  -0.000331  -0.041937   0.009115   0.000021
    16  H   -0.002590  -0.000018   0.007336  -0.041933  -0.001682   0.000049
             13         14         15         16
     1  H    0.000014  -0.000004   0.000001   0.000000
     2  C   -0.000255   0.000231  -0.000052  -0.000068
     3  C    0.001453  -0.000388   0.000073   0.000729
     4  H    0.000147  -0.000006  -0.000002  -0.000026
     5  H    0.000029  -0.000165   0.000078  -0.000010
     6  H   -0.000123   0.000000   0.000003   0.000015
     7  Si  -0.053329   0.008565  -0.017484  -0.002590
     8  H    0.000135   0.000001  -0.000026  -0.000018
     9  O   -0.007120   0.000152  -0.000331   0.007336
    10  O    0.259822  -0.040460  -0.041937  -0.041933
    11  H    0.002469  -0.000206   0.009115  -0.001682
    12  H    0.000395   0.000014   0.000021   0.000049
    13  C    4.781400   0.399396   0.417579   0.411866
    14  H    0.399396   0.564717  -0.030337  -0.031670
    15  H    0.417579  -0.030337   0.590266  -0.045159
    16  H    0.411866  -0.031670  -0.045159   0.573559
 Mulliken atomic charges:
              1
     1  H    0.130254
     2  C   -0.388662
     3  C   -0.289886
     4  H    0.113348
     5  H    0.140881
     6  H    0.126632
     7  Si   0.567862
     8  H    0.122047
     9  O   -0.626273
    10  O   -0.328671
    11  H   -0.041426
    12  H    0.309815
    13  C   -0.213880
    14  H    0.130163
    15  H    0.118193
    16  H    0.129605
 Sum of Mulliken atomic charges =   0.00000
 Mulliken charges with hydrogens summed into heavy atoms:
              1
     2  C   -0.004179
     3  C   -0.041208
     7  Si   0.526436
     9  O   -0.316458
    10  O   -0.328671
    13  C    0.164081
 Sum of Mulliken charges with hydrogens summed into heavy atoms =   0.00000
 Electronic spatial extent (au):  <R**2>=            896.8661
 Charge=              0.0000 electrons
 Dipole moment (field-independent basis, Debye):
    X=             -0.3156    Y=             -1.4125    Z=             -0.3984  Tot=              1.5012
 Quadrupole moment (field-independent basis, Debye-Ang):
   XX=            -40.4851   YY=            -50.9374   ZZ=            -42.7578
   XY=             -1.8947   XZ=             -0.2774   YZ=             -1.8979
 Traceless Quadrupole moment (field-independent basis, Debye-Ang):
   XX=              4.2416   YY=             -6.2106   ZZ=              1.9690
   XY=             -1.8947   XZ=             -0.2774   YZ=             -1.8979
 Octapole moment (field-independent basis, Debye-Ang**2):
  XXX=             14.2500  YYY=            -11.0652  ZZZ=             -8.4447  XYY=             -1.8874
  XXY=             -3.0888  XXZ=             -1.4517  XZZ=              0.8696  YZZ=              5.5693
  YYZ=             -4.8422  XYZ=              2.1397
 Hexadecapole moment (field-independent basis, Debye-Ang**3):
 XXXX=           -696.7708 YYYY=           -331.5052 ZZZZ=           -176.3118 XXXY=            -12.4303
 XXXZ=             -8.1082 YYYX=            -13.6580 YYYZ=            -11.4136 ZZZX=             -3.4638
 ZZZY=            -16.3825 XXYY=           -167.5162 XXZZ=           -150.2740 YYZZ=            -67.4806
 XXYZ=              0.4570 YYXZ=             -0.9809 ZZXY=             -5.0082
 N-N= 3.217357398005D+02 E-N=-1.967031356005D+03  KE= 5.579197084897D+02
 1\1\GINC-TARSUS2\SP\RPBE1PBE\def2TZVP\C3H10O2Si1\RENATO\10-Aug-2018\0\
 \#SP PBE1PBE/Def2TZVP geom=connectivity\\Structure: 297\\0,1\H,0,0.,0.
 ,0.\C,0,1.093,0.,0.\C,0,1.655,1.421,0.\H,0,1.41,-0.56,-0.885\H,0,1.424
 ,-0.557,0.88\H,0,1.308,1.969,-0.883\Si,0,3.513,1.515,0.035\H,0,1.282,1
 .975,0.868\O,0,4.324,0.666,-1.453\O,0,3.968,0.824,1.454\H,0,4.029,2.90
 6,-0.04\H,0,4.084,-0.246,-1.627\C,0,5.301,0.766,1.905\H,0,5.308,0.322,
 2.902\H,0,5.747,1.766,1.967\H,0,5.921,0.153,1.244\\Version=EM64L-G09Re
 vC.01\State=1-A\HF=-560.0384212\RMSD=2.558e-09\Dipole=-0.3191393,-0.20
 84527,0.4511338\Quadrupole=1.0324478,1.1684924,-2.2009403,-0.9558129,3
 .6315918,1.7270139\PG=C01 [X(C3H10O2Si1)]\\@


 Experience is what you get when you don't get what you want.
 -- Dan Stanford
 Job cpu time:  0 days  0 hours 14 minutes  3.9 seconds.
 File lengths (MBytes):  RWF=     40 Int=      0 D2E=      0 Chk=      3 Scr=      1
 Normal termination of Gaussian 09 at Fri Aug 10 05:10:11 2018.
