 Entering Gaussian System, Link 0=g09
 Initial command:
 /usr/local/gaussian09/g09/l1.exe /scratch/renato/Gau-10156.inp -scrdir=/scratch/renato/
 Entering Link 1 = /usr/local/gaussian09/g09/l1.exe PID=     10158.
  
 Copyright (c) 1988,1990,1992,1993,1995,1998,2003,2009,2011,
            Gaussian, Inc.  All Rights Reserved.
  
 This is part of the Gaussian(R) 09 program.  It is based on
 the Gaussian(R) 03 system (copyright 2003, Gaussian, Inc.),
 the Gaussian(R) 98 system (copyright 1998, Gaussian, Inc.),
 the Gaussian(R) 94 system (copyright 1995, Gaussian, Inc.),
 the Gaussian 92(TM) system (copyright 1992, Gaussian, Inc.),
 the Gaussian 90(TM) system (copyright 1990, Gaussian, Inc.),
 the Gaussian 88(TM) system (copyright 1988, Gaussian, Inc.),
 the Gaussian 86(TM) system (copyright 1986, Carnegie Mellon
 University), and the Gaussian 82(TM) system (copyright 1983,
 Carnegie Mellon University). Gaussian is a federally registered
 trademark of Gaussian, Inc.
  
 This software contains proprietary and confidential information,
 including trade secrets, belonging to Gaussian, Inc.
  
 This software is provided under written license and may be
 used, copied, transmitted, or stored only in accord with that
 written license.
  
 The following legend is applicable only to US Government
 contracts under FAR:
  
                    RESTRICTED RIGHTS LEGEND
  
 Use, reproduction and disclosure by the US Government is
 subject to restrictions as set forth in subparagraphs (a)
 and (c) of the Commercial Computer Software - Restricted
 Rights clause in FAR 52.227-19.
  
 Gaussian, Inc.
 340 Quinnipiac St., Bldg. 40, Wallingford CT 06492
  
  
 ---------------------------------------------------------------
 Warning -- This program may not be used in any manner that
 competes with the business of Gaussian, Inc. or will provide
 assistance to any competitor of Gaussian, Inc.  The licensee
 of this program is prohibited from giving any competitor of
 Gaussian, Inc. access to this program.  By using this program,
 the user acknowledges that Gaussian, Inc. is engaged in the
 business of creating and licensing software in the field of
 computational chemistry and represents and warrants to the
 licensee that it is not a competitor of Gaussian, Inc. and that
 it will not use this program in any manner prohibited above.
 ---------------------------------------------------------------
  

 Cite this work as:
 Gaussian 09, Revision C.01,
 M. J. Frisch, G. W. Trucks, H. B. Schlegel, G. E. Scuseria, 
 M. A. Robb, J. R. Cheeseman, G. Scalmani, V. Barone, B. Mennucci, 
 G. A. Petersson, H. Nakatsuji, M. Caricato, X. Li, H. P. Hratchian, 
 A. F. Izmaylov, J. Bloino, G. Zheng, J. L. Sonnenberg, M. Hada, 
 M. Ehara, K. Toyota, R. Fukuda, J. Hasegawa, M. Ishida, T. Nakajima, 
 Y. Honda, O. Kitao, H. Nakai, T. Vreven, J. A. Montgomery, Jr., 
 J. E. Peralta, F. Ogliaro, M. Bearpark, J. J. Heyd, E. Brothers, 
 K. N. Kudin, V. N. Staroverov, T. Keith, R. Kobayashi, J. Normand, 
 K. Raghavachari, A. Rendell, J. C. Burant, S. S. Iyengar, J. Tomasi, 
 M. Cossi, N. Rega, J. M. Millam, M. Klene, J. E. Knox, J. B. Cross, 
 V. Bakken, C. Adamo, J. Jaramillo, R. Gomperts, R. E. Stratmann, 
 O. Yazyev, A. J. Austin, R. Cammi, C. Pomelli, J. W. Ochterski, 
 R. L. Martin, K. Morokuma, V. G. Zakrzewski, G. A. Voth, 
 P. Salvador, J. J. Dannenberg, S. Dapprich, A. D. Daniels, 
 O. Farkas, J. B. Foresman, J. V. Ortiz, J. Cioslowski, 
 and D. J. Fox, Gaussian, Inc., Wallingford CT, 2010.
 
 ******************************************
 Gaussian 09:  EM64L-G09RevC.01 23-Sep-2011
                10-Aug-2018 
 ******************************************
 %nproc=2
 Will use up to    2 processors via shared memory.
 %mem=256MB
 %RWF=bm3.rwf
 %chk=bm3277
 %NoSave
 --------------------------------------
 #SP PBE1PBE/Def2TZVP geom=connectivity
 --------------------------------------
 1/38=1,57=2/1;
 2/12=2,17=6,18=5,40=1/2;
 3/5=44,7=101,11=2,16=1,25=1,30=1,74=-13/1,2,3;
 4//1;
 5/5=2,38=5/2;
 6/7=2,8=2,9=2,10=2,28=1/1;
 99/5=1,9=1/99;
 --------------
 Structure: 277
 --------------
 Charge =  0 Multiplicity = 1
 Symbolic Z-Matrix:
 H                     0.        0.        0. 
 C                     1.093     0.        0. 
 C                     1.655     1.421     0. 
 H                     1.41     -0.56     -0.885 
 H                     1.424    -0.557     0.88 
 H                     1.308     1.969    -0.883 
 Si                    3.513     1.515     0.035 
 H                     1.282     1.975     0.868 
 O                     4.306     0.684    -1.422 
 O                     3.968     0.824     1.454 
 H                     4.029     2.906    -0.04 
 H                     4.067    -0.228    -1.596 
 C                     5.301     0.766     1.905 
 H                     5.308     0.322     2.902 
 H                     5.747     1.766     1.967 
 H                     5.921     0.153     1.244 
 
                          Input orientation:                          
 ---------------------------------------------------------------------
 Center     Atomic      Atomic             Coordinates (Angstroms)
 Number     Number       Type             X           Y           Z
 ---------------------------------------------------------------------
      1          1           0        0.000000    0.000000    0.000000
      2          6           0        1.093000    0.000000    0.000000
      3          6           0        1.655000    1.421000    0.000000
      4          1           0        1.410000   -0.560000   -0.885000
      5          1           0        1.424000   -0.557000    0.880000
      6          1           0        1.308000    1.969000   -0.883000
      7         14           0        3.513000    1.515000    0.035000
      8          1           0        1.282000    1.975000    0.868000
      9          8           0        4.306000    0.684000   -1.422000
     10          8           0        3.968000    0.824000    1.454000
     11          1           0        4.029000    2.906000   -0.040000
     12          1           0        4.067000   -0.228000   -1.596000
     13          6           0        5.301000    0.766000    1.905000
     14          1           0        5.308000    0.322000    2.902000
     15          1           0        5.747000    1.766000    1.967000
     16          1           0        5.921000    0.153000    1.244000
 ---------------------------------------------------------------------
                    Distance matrix (angstroms):
                    1          2          3          4          5
     1  H    0.000000
     2  C    1.093000   0.000000
     3  C    2.181345   1.528098   0.000000
     4  H    1.756395   1.094218   2.183486   0.000000
     5  H    1.764207   1.092799   2.177210   1.765058   0.000000
     6  H    2.523393   2.168611   1.095629   2.531057   3.082580
     7  Si   3.825914   2.855320   1.860706   3.094291   3.061230
     8  H    2.509497   2.165588   1.095203   3.084740   2.536007
     9  O    4.586020   3.579568   3.097266   3.197299   3.891685
    10  O    4.305591   3.325465   2.796515   3.732257   2.951029
    11  H    4.967824   4.131166   2.800482   4.425646   4.429988
    12  H    4.374893   3.382880   3.329288   2.770450   3.636518
    13  C    5.684750   4.682205   4.165497   4.968124   4.222805
    14  H    6.058065   5.127525   4.793101   5.505788   4.466160
    15  H    6.325809   5.352342   4.553304   5.688036   5.026552
    16  H    6.052205   4.988039   4.621051   5.038862   4.567232
                    6          7          8          9         10
     6  H    0.000000
     7  Si   2.431227   0.000000
     8  H    1.751203   2.425459   0.000000
     9  O    3.306017   1.855333   4.006914   0.000000
    10  O    3.721316   1.642579   2.980401   2.899176   0.000000
    11  H    2.998743   1.485517   3.039282   2.631337   2.563295
    12  H    3.598230   2.450536   4.322121   0.958718   3.227848
    13  C    5.016393   2.693482   4.323125   3.473568   1.408423
    14  H    5.747942   3.586776   4.803982   4.453316   2.035757
    15  H    5.279056   2.964183   4.603011   3.838297   2.077348
    16  H    5.394604   3.019137   4.998138   3.161921   2.075705
                   11         12         13         14         15
    11  H    0.000000
    12  H    3.499219   0.000000
    13  C    3.159210   3.842889   0.000000
    14  H    4.119255   4.698360   1.091418   0.000000
    15  H    2.877355   4.415134   1.096704   1.775410   0.000000
    16  H    3.578733   3.412928   1.094116   1.775752   1.776168
                   16
    16  H    0.000000
 Stoichiometry    C3H10O2Si
 Framework group  C1[X(C3H10O2Si)]
 Deg. of freedom    42
 Full point group                 C1      NOp   1
 Largest Abelian subgroup         C1      NOp   1
 Largest concise Abelian subgroup C1      NOp   1
                         Standard orientation:                         
 ---------------------------------------------------------------------
 Center     Atomic      Atomic             Coordinates (Angstroms)
 Number     Number       Type             X           Y           Z
 ---------------------------------------------------------------------
      1          1           0       -3.235225   -1.155837   -0.598151
      2          6           0       -2.238251   -0.722311   -0.711055
      3          6           0       -1.625316   -0.362656    0.641736
      4          1           0       -2.345946    0.157466   -1.352700
      5          1           0       -1.620356   -1.447991   -1.245661
      6          1           0       -2.259652    0.358551    1.168880
      7         14           0        0.090216    0.351393    0.545231
      8          1           0       -1.575988   -1.249702    1.282193
      9          8           0        0.166629    1.916079   -0.448839
     10          8           0        1.029375   -0.830062   -0.103007
     11          1           0        0.628794    0.758384    1.868505
     12          1           0       -0.186004    1.892368   -1.340034
     13          6           0        2.423258   -0.718649   -0.271327
     14          1           0        2.800833   -1.668778   -0.653279
     15          1           0        2.925698   -0.502118    0.679161
     16          1           0        2.678640    0.071715   -0.983503
 ---------------------------------------------------------------------
 Rotational constants (GHZ):      3.6841736      1.8854771      1.5311214
 Standard basis: def2TZVP (5D, 7F)
 There are   252 symmetry adapted basis functions of A   symmetry.
 Integral buffers will be    131072 words long.
 Raffenetti 2 integral format.
 Two-electron integral symmetry is turned on.
   252 basis functions,   404 primitive gaussians,   282 cartesian basis functions
    29 alpha electrons       29 beta electrons
       nuclear repulsion energy       322.9095838705 Hartrees.
 NAtoms=   16 NActive=   16 NUniq=   16 SFac= 1.00D+00 NAtFMM=   60 NAOKFM=F Big=F
 One-electron integrals computed using PRISM.
   1 Symmetry operations used in ECPInt.
 ECPInt:  NShTT=    5886 NPrTT=   17754 LenC2=    5773 LenP2D=   13862.
 LDataN:  DoStor=T MaxTD1= 6 Len=  172
 NBasis=   252 RedAO= T  NBF=   252
 NBsUse=   252 1.00D-06 NBFU=   252
 Harris functional with IExCor= 1009 diagonalized for initial guess.
 ExpMin= 7.01D-02 ExpMax= 4.48D+04 ExpMxC= 1.53D+03 IAcc=2 IRadAn=         4 AccDes= 0.00D+00
 HarFok:  IExCor= 1009 AccDes= 0.00D+00 IRadAn=         4 IDoV= 1
 ScaDFX=  1.000000  1.000000  1.000000  1.000000
 FoFCou: FMM=F IPFlag=           0 FMFlag=      100000 FMFlg1=           0
         NFxFlg=           0 DoJE=T BraDBF=F KetDBF=T FulRan=T
         Omega=  0.000000  0.000000  1.000000  0.000000  0.000000 ICntrl=     500 IOpCl=  0
         NMat0=    1 NMatS0=    1 NMatT0=    0 NMatD0=    1 NMtDS0=    0 NMtDT0=    0
         I1Cent=           4 NGrid=           0.
 Petite list used in FoFCou.
 Initial guess orbital symmetries:
       Occupied  (A) (A) (A) (A) (A) (A) (A) (A) (A) (A) (A) (A)
                 (A) (A) (A) (A) (A) (A) (A) (A) (A) (A) (A) (A)
                 (A) (A) (A) (A) (A)
       Virtual   (A) (A) (A) (A) (A) (A) (A) (A) (A) (A) (A) (A)
                 (A) (A) (A) (A) (A) (A) (A) (A) (A) (A) (A) (A)
                 (A) (A) (A) (A) (A) (A) (A) (A) (A) (A) (A) (A)
                 (A) (A) (A) (A) (A) (A) (A) (A) (A) (A) (A) (A)
                 (A) (A) (A) (A) (A) (A) (A) (A) (A) (A) (A) (A)
                 (A) (A) (A) (A) (A) (A) (A) (A) (A) (A) (A) (A)
                 (A) (A) (A) (A) (A) (A) (A) (A) (A) (A) (A) (A)
                 (A) (A) (A) (A) (A) (A) (A) (A) (A) (A) (A) (A)
                 (A) (A) (A) (A) (A) (A) (A) (A) (A) (A) (A) (A)
                 (A) (A) (A) (A) (A) (A) (A) (A) (A) (A) (A) (A)
                 (A) (A) (A) (A) (A) (A) (A) (A) (A) (A) (A) (A)
                 (A) (A) (A) (A) (A) (A) (A) (A) (A) (A) (A) (A)
                 (A) (A) (A) (A) (A) (A) (A) (A) (A) (A) (A) (A)
                 (A) (A) (A) (A) (A) (A) (A) (A) (A) (A) (A) (A)
                 (A) (A) (A) (A) (A) (A) (A) (A) (A) (A) (A) (A)
                 (A) (A) (A) (A) (A) (A) (A) (A) (A) (A) (A) (A)
                 (A) (A) (A) (A) (A) (A) (A) (A) (A) (A) (A) (A)
                 (A) (A) (A) (A) (A) (A) (A) (A) (A) (A) (A) (A)
                 (A) (A) (A) (A) (A) (A) (A)
 The electronic state of the initial guess is 1-A.
 Requested convergence on RMS density matrix=1.00D-08 within 128 cycles.
 Requested convergence on MAX density matrix=1.00D-06.
 Requested convergence on             energy=1.00D-06.
 No special actions if energy rises.
 Integral accuracy reduced to 1.0D-05 until final iterations.
 Initial convergence to 1.0D-05 achieved.  Increase integral accuracy.
 SCF Done:  E(RPBE1PBE) =  -560.044172215     A.U. after   13 cycles
             Convg  =    0.9755D-08             -V/T =  2.0037

 **********************************************************************

            Population analysis using the SCF density.

 **********************************************************************

 Orbital symmetries:
       Occupied  (A) (A) (A) (A) (A) (A) (A) (A) (A) (A) (A) (A)
                 (A) (A) (A) (A) (A) (A) (A) (A) (A) (A) (A) (A)
                 (A) (A) (A) (A) (A)
       Virtual   (A) (A) (A) (A) (A) (A) (A) (A) (A) (A) (A) (A)
                 (A) (A) (A) (A) (A) (A) (A) (A) (A) (A) (A) (A)
                 (A) (A) (A) (A) (A) (A) (A) (A) (A) (A) (A) (A)
                 (A) (A) (A) (A) (A) (A) (A) (A) (A) (A) (A) (A)
                 (A) (A) (A) (A) (A) (A) (A) (A) (A) (A) (A) (A)
                 (A) (A) (A) (A) (A) (A) (A) (A) (A) (A) (A) (A)
                 (A) (A) (A) (A) (A) (A) (A) (A) (A) (A) (A) (A)
                 (A) (A) (A) (A) (A) (A) (A) (A) (A) (A) (A) (A)
                 (A) (A) (A) (A) (A) (A) (A) (A) (A) (A) (A) (A)
                 (A) (A) (A) (A) (A) (A) (A) (A) (A) (A) (A) (A)
                 (A) (A) (A) (A) (A) (A) (A) (A) (A) (A) (A) (A)
                 (A) (A) (A) (A) (A) (A) (A) (A) (A) (A) (A) (A)
                 (A) (A) (A) (A) (A) (A) (A) (A) (A) (A) (A) (A)
                 (A) (A) (A) (A) (A) (A) (A) (A) (A) (A) (A) (A)
                 (A) (A) (A) (A) (A) (A) (A) (A) (A) (A) (A) (A)
                 (A) (A) (A) (A) (A) (A) (A) (A) (A) (A) (A) (A)
                 (A) (A) (A) (A) (A) (A) (A) (A) (A) (A) (A) (A)
                 (A) (A) (A) (A) (A) (A) (A) (A) (A) (A) (A) (A)
                 (A) (A) (A) (A) (A) (A) (A)
 The electronic state is 1-A.
 Alpha  occ. eigenvalues --  -66.27594 -19.21002 -19.18829 -10.26828 -10.21950
 Alpha  occ. eigenvalues --  -10.21702  -5.34914  -3.68449  -3.68340  -3.68174
 Alpha  occ. eigenvalues --   -1.04763  -0.98422  -0.78670  -0.71013  -0.64472
 Alpha  occ. eigenvalues --   -0.55051  -0.49795  -0.47280  -0.46975  -0.46080
 Alpha  occ. eigenvalues --   -0.43891  -0.41634  -0.38203  -0.36776  -0.35913
 Alpha  occ. eigenvalues --   -0.34130  -0.31574  -0.30728  -0.30118
 Alpha virt. eigenvalues --    0.01992   0.04695   0.05531   0.07635   0.08769
 Alpha virt. eigenvalues --    0.09523   0.10133   0.10721   0.12033   0.12960
 Alpha virt. eigenvalues --    0.13423   0.14790   0.15356   0.15922   0.18880
 Alpha virt. eigenvalues --    0.20862   0.21707   0.22787   0.24194   0.24785
 Alpha virt. eigenvalues --    0.26487   0.26755   0.28613   0.29604   0.30605
 Alpha virt. eigenvalues --    0.32354   0.36513   0.39036   0.39911   0.40569
 Alpha virt. eigenvalues --    0.41718   0.42278   0.43819   0.44922   0.45406
 Alpha virt. eigenvalues --    0.45789   0.47224   0.47751   0.49182   0.49693
 Alpha virt. eigenvalues --    0.50402   0.53205   0.55241   0.56527   0.60597
 Alpha virt. eigenvalues --    0.60693   0.62467   0.63701   0.65555   0.68129
 Alpha virt. eigenvalues --    0.72539   0.73700   0.74144   0.76691   0.79759
 Alpha virt. eigenvalues --    0.81668   0.83420   0.86053   0.87475   0.91595
 Alpha virt. eigenvalues --    0.93098   0.94938   0.96103   0.98866   1.00665
 Alpha virt. eigenvalues --    1.02679   1.04893   1.06511   1.08107   1.11159
 Alpha virt. eigenvalues --    1.11789   1.12997   1.14762   1.18181   1.19209
 Alpha virt. eigenvalues --    1.23298   1.26890   1.32067   1.35741   1.40151
 Alpha virt. eigenvalues --    1.40836   1.45173   1.46481   1.50205   1.51854
 Alpha virt. eigenvalues --    1.53080   1.54059   1.54573   1.55611   1.57408
 Alpha virt. eigenvalues --    1.59134   1.60877   1.62399   1.62918   1.64455
 Alpha virt. eigenvalues --    1.66442   1.69373   1.73452   1.75663   1.77910
 Alpha virt. eigenvalues --    1.80100   1.82666   1.86214   1.89527   1.90515
 Alpha virt. eigenvalues --    1.93582   1.94724   1.98043   1.98830   2.01036
 Alpha virt. eigenvalues --    2.02689   2.06475   2.08260   2.11915   2.12992
 Alpha virt. eigenvalues --    2.16088   2.17159   2.25428   2.26910   2.29365
 Alpha virt. eigenvalues --    2.30103   2.31064   2.32640   2.34764   2.35203
 Alpha virt. eigenvalues --    2.35439   2.39382   2.42201   2.46203   2.48038
 Alpha virt. eigenvalues --    2.50390   2.50754   2.54193   2.55757   2.57858
 Alpha virt. eigenvalues --    2.58917   2.60836   2.64205   2.66509   2.70021
 Alpha virt. eigenvalues --    2.71940   2.75177   2.78357   2.79989   2.82277
 Alpha virt. eigenvalues --    2.83416   2.91671   2.92459   2.97421   2.99479
 Alpha virt. eigenvalues --    3.03789   3.08156   3.09347   3.10990   3.14347
 Alpha virt. eigenvalues --    3.18846   3.21953   3.22387   3.25788   3.29413
 Alpha virt. eigenvalues --    3.31010   3.32217   3.35150   3.38436   3.39908
 Alpha virt. eigenvalues --    3.44003   3.45265   3.45657   3.52264   3.53428
 Alpha virt. eigenvalues --    3.57396   3.59071   3.61750   3.64586   3.76177
 Alpha virt. eigenvalues --    3.80709   3.83287   3.91962   3.95181   4.02303
 Alpha virt. eigenvalues --    4.18519   4.23744   4.24353   4.33792   4.36447
 Alpha virt. eigenvalues --    4.41361   4.46380   4.52866   4.56408   4.78156
 Alpha virt. eigenvalues --    5.12944   5.17495   5.17847   5.18612   5.24422
 Alpha virt. eigenvalues --    5.28203   5.37120   5.40511   5.45531   5.51083
 Alpha virt. eigenvalues --    5.78658   5.85440   6.02699   6.21719   6.34120
 Alpha virt. eigenvalues --    6.40027   6.49694   6.53998   6.55389   6.59345
 Alpha virt. eigenvalues --    6.60290   6.75992   6.80129   6.88187   7.04210
 Alpha virt. eigenvalues --    7.11175   7.17776  11.62176  22.36670  22.40445
 Alpha virt. eigenvalues --   22.44371  43.52465  43.92991
          Condensed to atoms (all electrons):
              1          2          3          4          5          6
     1  H    0.552550   0.406213  -0.033845  -0.025028  -0.024921  -0.006895
     2  C    0.406213   4.943288   0.320077   0.398445   0.411570  -0.026020
     3  C   -0.033845   0.320077   5.000697  -0.042608  -0.038058   0.388918
     4  H   -0.025028   0.398445  -0.042608   0.573562  -0.025729  -0.004971
     5  H   -0.024921   0.411570  -0.038058  -0.025729   0.534682   0.007543
     6  H   -0.006895  -0.026020   0.388918  -0.004971   0.007543   0.572083
     7  Si   0.008307  -0.024466   0.415469  -0.002695  -0.009763  -0.030625
     8  H   -0.006513  -0.029895   0.371862   0.008753  -0.004069  -0.027395
     9  O    0.000050  -0.005412  -0.028028   0.005844  -0.000322  -0.000708
    10  O    0.000028  -0.005255  -0.030309   0.000368   0.007697   0.001341
    11  H   -0.000120   0.001482  -0.032864   0.000209   0.000378   0.001042
    12  H   -0.000047  -0.000464  -0.001410   0.001673  -0.000024   0.000028
    13  C    0.000013  -0.000221   0.001521   0.000138   0.000014  -0.000123
    14  H   -0.000004   0.000229  -0.000391  -0.000005  -0.000164   0.000000
    15  H    0.000001  -0.000051   0.000059  -0.000002   0.000079   0.000003
    16  H    0.000000  -0.000078   0.000743  -0.000024  -0.000007   0.000014
              7          8          9         10         11         12
     1  H    0.008307  -0.006513   0.000050   0.000028  -0.000120  -0.000047
     2  C   -0.024466  -0.029895  -0.005412  -0.005255   0.001482  -0.000464
     3  C    0.415469   0.371862  -0.028028  -0.030309  -0.032864  -0.001410
     4  H   -0.002695   0.008753   0.005844   0.000368   0.000209   0.001673
     5  H   -0.009763  -0.004069  -0.000322   0.007697   0.000378  -0.000024
     6  H   -0.030625  -0.027395  -0.000708   0.001341   0.001042   0.000028
     7  Si  11.945290  -0.012827   0.396875   0.446401   0.390790  -0.023712
     8  H   -0.012827   0.574601   0.001524   0.001745   0.000844  -0.000076
     9  O    0.396875   0.001524   7.993440  -0.025404  -0.013407   0.289233
    10  O    0.446401   0.001745  -0.025404   7.823637  -0.024860  -0.000457
    11  H    0.390790   0.000844  -0.013407  -0.024860   0.708607   0.002805
    12  H   -0.023712  -0.000076   0.289233  -0.000457   0.002805   0.420849
    13  C   -0.052745   0.000127  -0.007112   0.260202   0.002469   0.000427
    14  H    0.008448   0.000000   0.000145  -0.040560  -0.000210   0.000015
    15  H   -0.017545  -0.000025  -0.000348  -0.042059   0.009271   0.000017
    16  H   -0.002886  -0.000018   0.007239  -0.042239  -0.001730   0.000081
             13         14         15         16
     1  H    0.000013  -0.000004   0.000001   0.000000
     2  C   -0.000221   0.000229  -0.000051  -0.000078
     3  C    0.001521  -0.000391   0.000059   0.000743
     4  H    0.000138  -0.000005  -0.000002  -0.000024
     5  H    0.000014  -0.000164   0.000079  -0.000007
     6  H   -0.000123   0.000000   0.000003   0.000014
     7  Si  -0.052745   0.008448  -0.017545  -0.002886
     8  H    0.000127   0.000000  -0.000025  -0.000018
     9  O   -0.007112   0.000145  -0.000348   0.007239
    10  O    0.260202  -0.040560  -0.042059  -0.042239
    11  H    0.002469  -0.000210   0.009271  -0.001730
    12  H    0.000427   0.000015   0.000017   0.000081
    13  C    4.779167   0.399869   0.417692   0.411981
    14  H    0.399869   0.565062  -0.030353  -0.032000
    15  H    0.417692  -0.030353   0.590745  -0.045549
    16  H    0.411981  -0.032000  -0.045549   0.576415
 Mulliken atomic charges:
              1
     1  H    0.130210
     2  C   -0.389442
     3  C   -0.291833
     4  H    0.112069
     5  H    0.141095
     6  H    0.125765
     7  Si   0.565682
     8  H    0.121361
     9  O   -0.613608
    10  O   -0.330277
    11  H   -0.044706
    12  H    0.311062
    13  C   -0.213419
    14  H    0.129919
    15  H    0.118064
    16  H    0.128057
 Sum of Mulliken atomic charges =   0.00000
 Mulliken charges with hydrogens summed into heavy atoms:
              1
     2  C   -0.006068
     3  C   -0.044707
     7  Si   0.520976
     9  O   -0.302547
    10  O   -0.330277
    13  C    0.162622
 Sum of Mulliken charges with hydrogens summed into heavy atoms =   0.00000
 Electronic spatial extent (au):  <R**2>=            891.7816
 Charge=              0.0000 electrons
 Dipole moment (field-independent basis, Debye):
    X=             -0.3068    Y=             -1.2668    Z=             -0.4673  Tot=              1.3847
 Quadrupole moment (field-independent basis, Debye-Ang):
   XX=            -40.5966   YY=            -50.6481   ZZ=            -42.7762
   XY=             -1.8466   XZ=             -0.2650   YZ=             -1.8648
 Traceless Quadrupole moment (field-independent basis, Debye-Ang):
   XX=              4.0770   YY=             -5.9744   ZZ=              1.8974
   XY=             -1.8466   XZ=             -0.2650   YZ=             -1.8648
 Octapole moment (field-independent basis, Debye-Ang**2):
  XXX=             14.2834  YYY=            -10.2411  ZZZ=             -8.8025  XYY=             -1.7003
  XXY=             -2.9097  XXZ=             -1.4222  XZZ=              0.8297  YZZ=              5.5282
  YYZ=             -4.5841  XYZ=              2.0990
 Hexadecapole moment (field-independent basis, Debye-Ang**3):
 XXXX=           -698.1444 YYYY=           -324.4111 ZZZZ=           -175.0144 XXXY=            -12.4176
 XXXZ=             -7.8728 YYYX=            -13.3163 YYYZ=            -10.5380 ZZZX=             -3.3494
 ZZZY=            -16.9545 XXYY=           -166.5768 XXZZ=           -150.4333 YYZZ=            -66.9987
 XXYZ=              0.2641 YYXZ=             -1.0508 ZZXY=             -5.0092
 N-N= 3.229095838705D+02 E-N=-1.969437108008D+03  KE= 5.579539811809D+02
 1\1\GINC-TARSUS2\SP\RPBE1PBE\def2TZVP\C3H10O2Si1\RENATO\10-Aug-2018\0\
 \#SP PBE1PBE/Def2TZVP geom=connectivity\\Structure: 277\\0,1\H,0,0.,0.
 ,0.\C,0,1.093,0.,0.\C,0,1.655,1.421,0.\H,0,1.41,-0.56,-0.885\H,0,1.424
 ,-0.557,0.88\H,0,1.308,1.969,-0.883\Si,0,3.513,1.515,0.035\H,0,1.282,1
 .975,0.868\O,0,4.306,0.684,-1.422\O,0,3.968,0.824,1.454\H,0,4.029,2.90
 6,-0.04\H,0,4.067,-0.228,-1.596\C,0,5.301,0.766,1.905\H,0,5.308,0.322,
 2.902\H,0,5.747,1.766,1.967\H,0,5.921,0.153,1.244\\Version=EM64L-G09Re
 vC.01\State=1-A\HF=-560.0441722\RMSD=9.755e-09\Dipole=-0.2888063,-0.23
 90168,0.3952723\Quadrupole=0.9955486,1.0533744,-2.0489229,-0.9871905,3
 .4731856,1.7643309\PG=C01 [X(C3H10O2Si1)]\\@


 THE MEEK SHALL INHERIT THE EARTH.
 (THE REST OF US WILL ESCAPE TO THE STARS)
 Job cpu time:  0 days  0 hours 13 minutes  0.7 seconds.
 File lengths (MBytes):  RWF=     40 Int=      0 D2E=      0 Chk=      3 Scr=      1
 Normal termination of Gaussian 09 at Fri Aug 10 02:51:10 2018.
