 Entering Gaussian System, Link 0=g09
 Initial command:
 /usr/local/gaussian09/g09/l1.exe /scratch/renato/Gau-12459.inp -scrdir=/scratch/renato/
 Entering Link 1 = /usr/local/gaussian09/g09/l1.exe PID=     12461.
  
 Copyright (c) 1988,1990,1992,1993,1995,1998,2003,2009,2011,
            Gaussian, Inc.  All Rights Reserved.
  
 This is part of the Gaussian(R) 09 program.  It is based on
 the Gaussian(R) 03 system (copyright 2003, Gaussian, Inc.),
 the Gaussian(R) 98 system (copyright 1998, Gaussian, Inc.),
 the Gaussian(R) 94 system (copyright 1995, Gaussian, Inc.),
 the Gaussian 92(TM) system (copyright 1992, Gaussian, Inc.),
 the Gaussian 90(TM) system (copyright 1990, Gaussian, Inc.),
 the Gaussian 88(TM) system (copyright 1988, Gaussian, Inc.),
 the Gaussian 86(TM) system (copyright 1986, Carnegie Mellon
 University), and the Gaussian 82(TM) system (copyright 1983,
 Carnegie Mellon University). Gaussian is a federally registered
 trademark of Gaussian, Inc.
  
 This software contains proprietary and confidential information,
 including trade secrets, belonging to Gaussian, Inc.
  
 This software is provided under written license and may be
 used, copied, transmitted, or stored only in accord with that
 written license.
  
 The following legend is applicable only to US Government
 contracts under FAR:
  
                    RESTRICTED RIGHTS LEGEND
  
 Use, reproduction and disclosure by the US Government is
 subject to restrictions as set forth in subparagraphs (a)
 and (c) of the Commercial Computer Software - Restricted
 Rights clause in FAR 52.227-19.
  
 Gaussian, Inc.
 340 Quinnipiac St., Bldg. 40, Wallingford CT 06492
  
  
 ---------------------------------------------------------------
 Warning -- This program may not be used in any manner that
 competes with the business of Gaussian, Inc. or will provide
 assistance to any competitor of Gaussian, Inc.  The licensee
 of this program is prohibited from giving any competitor of
 Gaussian, Inc. access to this program.  By using this program,
 the user acknowledges that Gaussian, Inc. is engaged in the
 business of creating and licensing software in the field of
 computational chemistry and represents and warrants to the
 licensee that it is not a competitor of Gaussian, Inc. and that
 it will not use this program in any manner prohibited above.
 ---------------------------------------------------------------
  

 Cite this work as:
 Gaussian 09, Revision C.01,
 M. J. Frisch, G. W. Trucks, H. B. Schlegel, G. E. Scuseria, 
 M. A. Robb, J. R. Cheeseman, G. Scalmani, V. Barone, B. Mennucci, 
 G. A. Petersson, H. Nakatsuji, M. Caricato, X. Li, H. P. Hratchian, 
 A. F. Izmaylov, J. Bloino, G. Zheng, J. L. Sonnenberg, M. Hada, 
 M. Ehara, K. Toyota, R. Fukuda, J. Hasegawa, M. Ishida, T. Nakajima, 
 Y. Honda, O. Kitao, H. Nakai, T. Vreven, J. A. Montgomery, Jr., 
 J. E. Peralta, F. Ogliaro, M. Bearpark, J. J. Heyd, E. Brothers, 
 K. N. Kudin, V. N. Staroverov, T. Keith, R. Kobayashi, J. Normand, 
 K. Raghavachari, A. Rendell, J. C. Burant, S. S. Iyengar, J. Tomasi, 
 M. Cossi, N. Rega, J. M. Millam, M. Klene, J. E. Knox, J. B. Cross, 
 V. Bakken, C. Adamo, J. Jaramillo, R. Gomperts, R. E. Stratmann, 
 O. Yazyev, A. J. Austin, R. Cammi, C. Pomelli, J. W. Ochterski, 
 R. L. Martin, K. Morokuma, V. G. Zakrzewski, G. A. Voth, 
 P. Salvador, J. J. Dannenberg, S. Dapprich, A. D. Daniels, 
 O. Farkas, J. B. Foresman, J. V. Ortiz, J. Cioslowski, 
 and D. J. Fox, Gaussian, Inc., Wallingford CT, 2010.
 
 ******************************************
 Gaussian 09:  EM64L-G09RevC.01 23-Sep-2011
                10-Aug-2018 
 ******************************************
 %nproc=2
 Will use up to    2 processors via shared memory.
 %mem=256MB
 %RWF=bm3.rwf
 %chk=bm336
 %NoSave
 --------------------------------------
 #SP PBE1PBE/Def2TZVP geom=connectivity
 --------------------------------------
 1/38=1,57=2/1;
 2/12=2,17=6,18=5,40=1/2;
 3/5=44,7=101,11=2,16=1,25=1,30=1,74=-13/1,2,3;
 4//1;
 5/5=2,38=5/2;
 6/7=2,8=2,9=2,10=2,28=1/1;
 99/5=1,9=1/99;
 -------------
 Structure: 36
 -------------
 Charge =  0 Multiplicity = 1
 Symbolic Z-Matrix:
 H                     0.        0.        0. 
 C                     1.093     0.        0. 
 C                     1.655     1.421     0. 
 H                     1.41     -0.56     -0.885 
 H                     1.424    -0.557     0.88 
 H                     1.308     1.969    -0.883 
 Si                    3.513     1.515     0.035 
 H                     1.282     1.975     0.868 
 O                     4.1       0.9      -1.044 
 O                     3.968     0.824     1.454 
 H                     4.029     2.906    -0.04 
 H                     3.861    -0.012    -1.218 
 C                     5.301     0.766     1.905 
 H                     5.308     0.322     2.902 
 H                     5.747     1.766     1.967 
 H                     5.921     0.153     1.244 
 
                          Input orientation:                          
 ---------------------------------------------------------------------
 Center     Atomic      Atomic             Coordinates (Angstroms)
 Number     Number       Type             X           Y           Z
 ---------------------------------------------------------------------
      1          1           0        0.000000    0.000000    0.000000
      2          6           0        1.093000    0.000000    0.000000
      3          6           0        1.655000    1.421000    0.000000
      4          1           0        1.410000   -0.560000   -0.885000
      5          1           0        1.424000   -0.557000    0.880000
      6          1           0        1.308000    1.969000   -0.883000
      7         14           0        3.513000    1.515000    0.035000
      8          1           0        1.282000    1.975000    0.868000
      9          8           0        4.100000    0.900000   -1.044000
     10          8           0        3.968000    0.824000    1.454000
     11          1           0        4.029000    2.906000   -0.040000
     12          1           0        3.861000   -0.012000   -1.218000
     13          6           0        5.301000    0.766000    1.905000
     14          1           0        5.308000    0.322000    2.902000
     15          1           0        5.747000    1.766000    1.967000
     16          1           0        5.921000    0.153000    1.244000
 ---------------------------------------------------------------------
                    Distance matrix (angstroms):
                    1          2          3          4          5
     1  H    0.000000
     2  C    1.093000   0.000000
     3  C    2.181345   1.528098   0.000000
     4  H    1.756395   1.094218   2.183486   0.000000
     5  H    1.764207   1.092799   2.177210   1.765058   0.000000
     6  H    2.523393   2.168611   1.095629   2.531057   3.082580
     7  Si   3.825914   2.855320   1.860706   3.094291   3.061230
     8  H    2.509497   2.165588   1.095203   3.084740   2.536007
     9  O    4.325498   3.307867   2.709133   3.064797   3.603554
    10  O    4.305591   3.325465   2.796515   3.732257   2.951029
    11  H    4.967824   4.131166   2.800482   4.425646   4.429988
    12  H    4.048579   3.024151   2.898870   2.533494   3.261533
    13  C    5.684750   4.682205   4.165497   4.968124   4.222805
    14  H    6.058065   5.127525   4.793101   5.505788   4.466160
    15  H    6.325809   5.352342   4.553304   5.688036   5.026552
    16  H    6.052205   4.988039   4.621051   5.038862   4.567232
                    6          7          8          9         10
     6  H    0.000000
     7  Si   2.431227   0.000000
     8  H    1.751203   2.425459   0.000000
     9  O    2.993985   1.373694   3.571063   0.000000
    10  O    3.721316   1.642579   2.980401   2.502639   0.000000
    11  H    2.998743   1.485517   3.039282   2.244347   2.563295
    12  H    3.248753   2.005702   3.866627   0.958718   2.801772
    13  C    5.016393   2.693482   4.323125   3.186998   1.408423
    14  H    5.747942   3.586776   4.803982   4.167045   2.035757
    15  H    5.279056   2.964183   4.603011   3.539588   2.077348
    16  H    5.394604   3.019137   4.998138   3.018111   2.075705
                   11         12         13         14         15
    11  H    0.000000
    12  H    3.151291   0.000000
    13  C    3.159210   3.525906   0.000000
    14  H    4.119255   4.379471   1.091418   0.000000
    15  H    2.877355   4.106398   1.096704   1.775410   0.000000
    16  H    3.578733   3.214385   1.094116   1.775752   1.776168
                   16
    16  H    0.000000
 Stoichiometry    C3H10O2Si
 Framework group  C1[X(C3H10O2Si)]
 Deg. of freedom    42
 Full point group                 C1      NOp   1
 Largest Abelian subgroup         C1      NOp   1
 Largest concise Abelian subgroup C1      NOp   1
                         Standard orientation:                         
 ---------------------------------------------------------------------
 Center     Atomic      Atomic             Coordinates (Angstroms)
 Number     Number       Type             X           Y           Z
 ---------------------------------------------------------------------
      1          1           0       -3.225449   -1.242188   -0.318840
      2          6           0       -2.232094   -0.846083   -0.544664
      3          6           0       -1.618267   -0.144404    0.666099
      4          1           0       -2.348174   -0.163159   -1.391691
      5          1           0       -1.610159   -1.681323   -0.875996
      6          1           0       -2.256629    0.684475    0.991456
      7         14           0        0.091541    0.531655    0.380219
      8          1           0       -1.560501   -0.835044    1.514124
      9          8           0        0.137161    1.460695   -0.630641
     10          8           0        1.037877   -0.771101    0.055655
     11          1           0        0.630575    1.270922    1.550556
     12          1           0       -0.217677    1.204727   -1.483702
     13          6           0        2.430419   -0.697840   -0.142119
     14          1           0        2.814152   -1.711939   -0.266804
     15          1           0        2.933757   -0.239289    0.717614
     16          1           0        2.677892   -0.117133   -1.035778
 ---------------------------------------------------------------------
 Rotational constants (GHZ):      4.5994711      1.9264902      1.6388735
 Standard basis: def2TZVP (5D, 7F)
 There are   252 symmetry adapted basis functions of A   symmetry.
 Integral buffers will be    131072 words long.
 Raffenetti 2 integral format.
 Two-electron integral symmetry is turned on.
   252 basis functions,   404 primitive gaussians,   282 cartesian basis functions
    29 alpha electrons       29 beta electrons
       nuclear repulsion energy       340.6531615498 Hartrees.
 NAtoms=   16 NActive=   16 NUniq=   16 SFac= 1.00D+00 NAtFMM=   60 NAOKFM=F Big=F
 One-electron integrals computed using PRISM.
   1 Symmetry operations used in ECPInt.
 ECPInt:  NShTT=    5886 NPrTT=   17754 LenC2=    5784 LenP2D=   13986.
 LDataN:  DoStor=T MaxTD1= 6 Len=  172
 NBasis=   252 RedAO= T  NBF=   252
 NBsUse=   252 1.00D-06 NBFU=   252
 Harris functional with IExCor= 1009 diagonalized for initial guess.
 ExpMin= 7.01D-02 ExpMax= 4.48D+04 ExpMxC= 1.53D+03 IAcc=2 IRadAn=         4 AccDes= 0.00D+00
 HarFok:  IExCor= 1009 AccDes= 0.00D+00 IRadAn=         4 IDoV= 1
 ScaDFX=  1.000000  1.000000  1.000000  1.000000
 FoFCou: FMM=F IPFlag=           0 FMFlag=      100000 FMFlg1=           0
         NFxFlg=           0 DoJE=T BraDBF=F KetDBF=T FulRan=T
         Omega=  0.000000  0.000000  1.000000  0.000000  0.000000 ICntrl=     500 IOpCl=  0
         NMat0=    1 NMatS0=    1 NMatT0=    0 NMatD0=    1 NMtDS0=    0 NMtDT0=    0
         I1Cent=           4 NGrid=           0.
 Petite list used in FoFCou.
 Initial guess orbital symmetries:
       Occupied  (A) (A) (A) (A) (A) (A) (A) (A) (A) (A) (A) (A)
                 (A) (A) (A) (A) (A) (A) (A) (A) (A) (A) (A) (A)
                 (A) (A) (A) (A) (A)
       Virtual   (A) (A) (A) (A) (A) (A) (A) (A) (A) (A) (A) (A)
                 (A) (A) (A) (A) (A) (A) (A) (A) (A) (A) (A) (A)
                 (A) (A) (A) (A) (A) (A) (A) (A) (A) (A) (A) (A)
                 (A) (A) (A) (A) (A) (A) (A) (A) (A) (A) (A) (A)
                 (A) (A) (A) (A) (A) (A) (A) (A) (A) (A) (A) (A)
                 (A) (A) (A) (A) (A) (A) (A) (A) (A) (A) (A) (A)
                 (A) (A) (A) (A) (A) (A) (A) (A) (A) (A) (A) (A)
                 (A) (A) (A) (A) (A) (A) (A) (A) (A) (A) (A) (A)
                 (A) (A) (A) (A) (A) (A) (A) (A) (A) (A) (A) (A)
                 (A) (A) (A) (A) (A) (A) (A) (A) (A) (A) (A) (A)
                 (A) (A) (A) (A) (A) (A) (A) (A) (A) (A) (A) (A)
                 (A) (A) (A) (A) (A) (A) (A) (A) (A) (A) (A) (A)
                 (A) (A) (A) (A) (A) (A) (A) (A) (A) (A) (A) (A)
                 (A) (A) (A) (A) (A) (A) (A) (A) (A) (A) (A) (A)
                 (A) (A) (A) (A) (A) (A) (A) (A) (A) (A) (A) (A)
                 (A) (A) (A) (A) (A) (A) (A) (A) (A) (A) (A) (A)
                 (A) (A) (A) (A) (A) (A) (A) (A) (A) (A) (A) (A)
                 (A) (A) (A) (A) (A) (A) (A) (A) (A) (A) (A) (A)
                 (A) (A) (A) (A) (A) (A) (A)
 The electronic state of the initial guess is 1-A.
 Requested convergence on RMS density matrix=1.00D-08 within 128 cycles.
 Requested convergence on MAX density matrix=1.00D-06.
 Requested convergence on             energy=1.00D-06.
 No special actions if energy rises.
 Integral accuracy reduced to 1.0D-05 until final iterations.
 Initial convergence to 1.0D-05 achieved.  Increase integral accuracy.
 SCF Done:  E(RPBE1PBE) =  -559.986791267     A.U. after   12 cycles
             Convg  =    0.9858D-08             -V/T =  2.0014

 **********************************************************************

            Population analysis using the SCF density.

 **********************************************************************

 Orbital symmetries:
       Occupied  (A) (A) (A) (A) (A) (A) (A) (A) (A) (A) (A) (A)
                 (A) (A) (A) (A) (A) (A) (A) (A) (A) (A) (A) (A)
                 (A) (A) (A) (A) (A)
       Virtual   (A) (A) (A) (A) (A) (A) (A) (A) (A) (A) (A) (A)
                 (A) (A) (A) (A) (A) (A) (A) (A) (A) (A) (A) (A)
                 (A) (A) (A) (A) (A) (A) (A) (A) (A) (A) (A) (A)
                 (A) (A) (A) (A) (A) (A) (A) (A) (A) (A) (A) (A)
                 (A) (A) (A) (A) (A) (A) (A) (A) (A) (A) (A) (A)
                 (A) (A) (A) (A) (A) (A) (A) (A) (A) (A) (A) (A)
                 (A) (A) (A) (A) (A) (A) (A) (A) (A) (A) (A) (A)
                 (A) (A) (A) (A) (A) (A) (A) (A) (A) (A) (A) (A)
                 (A) (A) (A) (A) (A) (A) (A) (A) (A) (A) (A) (A)
                 (A) (A) (A) (A) (A) (A) (A) (A) (A) (A) (A) (A)
                 (A) (A) (A) (A) (A) (A) (A) (A) (A) (A) (A) (A)
                 (A) (A) (A) (A) (A) (A) (A) (A) (A) (A) (A) (A)
                 (A) (A) (A) (A) (A) (A) (A) (A) (A) (A) (A) (A)
                 (A) (A) (A) (A) (A) (A) (A) (A) (A) (A) (A) (A)
                 (A) (A) (A) (A) (A) (A) (A) (A) (A) (A) (A) (A)
                 (A) (A) (A) (A) (A) (A) (A) (A) (A) (A) (A) (A)
                 (A) (A) (A) (A) (A) (A) (A) (A) (A) (A) (A) (A)
                 (A) (A) (A) (A) (A) (A) (A) (A) (A) (A) (A) (A)
                 (A) (A) (A) (A) (A) (A) (A)
 The electronic state is 1-A.
 Alpha  occ. eigenvalues --  -66.21149 -19.21251 -19.18746 -10.26027 -10.21518
 Alpha  occ. eigenvalues --  -10.19700  -5.30235  -3.63967  -3.63485  -3.63322
 Alpha  occ. eigenvalues --   -1.10526  -1.02633  -0.77661  -0.69950  -0.63847
 Alpha  occ. eigenvalues --   -0.61076  -0.51479  -0.47208  -0.46594  -0.45972
 Alpha  occ. eigenvalues --   -0.43501  -0.42609  -0.41104  -0.39496  -0.36370
 Alpha  occ. eigenvalues --   -0.35670  -0.31160  -0.29707  -0.28512
 Alpha virt. eigenvalues --    0.01848   0.06164   0.06592   0.08459   0.09127
 Alpha virt. eigenvalues --    0.10523   0.11379   0.12049   0.12550   0.13513
 Alpha virt. eigenvalues --    0.15242   0.15593   0.16997   0.17620   0.19759
 Alpha virt. eigenvalues --    0.21605   0.22553   0.24140   0.24882   0.25291
 Alpha virt. eigenvalues --    0.26578   0.28895   0.29331   0.30916   0.33245
 Alpha virt. eigenvalues --    0.34237   0.36493   0.39027   0.41144   0.41470
 Alpha virt. eigenvalues --    0.42328   0.42907   0.44552   0.45108   0.46409
 Alpha virt. eigenvalues --    0.46921   0.47728   0.48138   0.50558   0.51391
 Alpha virt. eigenvalues --    0.52941   0.53802   0.55673   0.57486   0.59545
 Alpha virt. eigenvalues --    0.60731   0.63807   0.66033   0.67389   0.68542
 Alpha virt. eigenvalues --    0.74433   0.76001   0.76857   0.79422   0.83408
 Alpha virt. eigenvalues --    0.84501   0.84733   0.86427   0.89296   0.92281
 Alpha virt. eigenvalues --    0.94241   0.96018   0.98844   1.00712   1.01882
 Alpha virt. eigenvalues --    1.05170   1.07686   1.10108   1.11225   1.11488
 Alpha virt. eigenvalues --    1.12719   1.16104   1.20672   1.21725   1.25232
 Alpha virt. eigenvalues --    1.26557   1.32252   1.35840   1.38670   1.42490
 Alpha virt. eigenvalues --    1.43736   1.47992   1.51262   1.51483   1.53343
 Alpha virt. eigenvalues --    1.55123   1.55624   1.56361   1.57228   1.59380
 Alpha virt. eigenvalues --    1.60017   1.63766   1.65022   1.66457   1.67449
 Alpha virt. eigenvalues --    1.69613   1.74885   1.77639   1.80088   1.81309
 Alpha virt. eigenvalues --    1.82689   1.85646   1.89341   1.90980   1.94261
 Alpha virt. eigenvalues --    1.96134   1.97171   2.00953   2.04372   2.07325
 Alpha virt. eigenvalues --    2.07450   2.09731   2.14053   2.15515   2.17779
 Alpha virt. eigenvalues --    2.20087   2.22458   2.25467   2.30620   2.32353
 Alpha virt. eigenvalues --    2.33771   2.34749   2.35476   2.36597   2.38040
 Alpha virt. eigenvalues --    2.40321   2.42497   2.48161   2.48868   2.51907
 Alpha virt. eigenvalues --    2.52853   2.54714   2.55828   2.56832   2.59042
 Alpha virt. eigenvalues --    2.61083   2.62073   2.66766   2.69295   2.72768
 Alpha virt. eigenvalues --    2.74789   2.80315   2.81263   2.86236   2.89405
 Alpha virt. eigenvalues --    2.92366   2.95319   2.99546   3.00534   3.06232
 Alpha virt. eigenvalues --    3.09693   3.11792   3.12497   3.16123   3.17408
 Alpha virt. eigenvalues --    3.22891   3.23057   3.24727   3.30628   3.31522
 Alpha virt. eigenvalues --    3.33247   3.33831   3.38958   3.41256   3.45221
 Alpha virt. eigenvalues --    3.45941   3.47068   3.53753   3.54254   3.59023
 Alpha virt. eigenvalues --    3.60459   3.63015   3.66364   3.74953   3.77520
 Alpha virt. eigenvalues --    3.82277   3.93119   3.96149   4.03234   4.18222
 Alpha virt. eigenvalues --    4.21883   4.24760   4.26202   4.34738   4.37618
 Alpha virt. eigenvalues --    4.42105   4.47917   4.54190   4.57988   4.79381
 Alpha virt. eigenvalues --    5.14433   5.15357   5.21354   5.25176   5.32023
 Alpha virt. eigenvalues --    5.38998   5.41907   5.46577   5.49119   5.70938
 Alpha virt. eigenvalues --    5.81484   5.87741   6.04610   6.28915   6.44867
 Alpha virt. eigenvalues --    6.46922   6.59153   6.61356   6.65164   6.73884
 Alpha virt. eigenvalues --    6.78919   6.83484   6.87749   7.04198   7.16060
 Alpha virt. eigenvalues --    7.19739   7.23800  12.17746  22.37433  22.41522
 Alpha virt. eigenvalues --   22.46813  43.81978  43.97126
          Condensed to atoms (all electrons):
              1          2          3          4          5          6
     1  H    0.548357   0.409787  -0.032548  -0.024949  -0.023731  -0.006786
     2  C    0.409787   4.948426   0.301244   0.401696   0.414614  -0.033784
     3  C   -0.032548   0.301244   5.087681  -0.046751  -0.042192   0.384442
     4  H   -0.024949   0.401696  -0.046751   0.600674  -0.030215  -0.004881
     5  H   -0.023731   0.414614  -0.042192  -0.030215   0.531383   0.008046
     6  H   -0.006786  -0.033784   0.384442  -0.004881   0.008046   0.585818
     7  Si   0.006908  -0.016359   0.433506  -0.009382  -0.005818  -0.024770
     8  H   -0.007395  -0.025140   0.367236   0.009053  -0.004108  -0.024690
     9  O   -0.000062  -0.000806  -0.043875   0.003080  -0.000493  -0.001871
    10  O   -0.000011  -0.004374  -0.032487   0.000477   0.007253   0.001318
    11  H   -0.000108   0.002466  -0.039730   0.000202   0.000440   0.001863
    12  H   -0.000203   0.002576  -0.004088   0.003563   0.000130   0.000114
    13  C    0.000008  -0.000001   0.002743   0.000064  -0.000170  -0.000134
    14  H   -0.000004   0.000223  -0.000476   0.000000  -0.000168  -0.000001
    15  H    0.000000  -0.000016  -0.000232  -0.000001   0.000084   0.000007
    16  H    0.000002  -0.000181   0.000973  -0.000008   0.000041   0.000015
              7          8          9         10         11         12
     1  H    0.006908  -0.007395  -0.000062  -0.000011  -0.000108  -0.000203
     2  C   -0.016359  -0.025140  -0.000806  -0.004374   0.002466   0.002576
     3  C    0.433506   0.367236  -0.043875  -0.032487  -0.039730  -0.004088
     4  H   -0.009382   0.009053   0.003080   0.000477   0.000202   0.003563
     5  H   -0.005818  -0.004108  -0.000493   0.007253   0.000440   0.000130
     6  H   -0.024770  -0.024690  -0.001871   0.001318   0.001863   0.000114
     7  Si  11.883397  -0.016189   0.546490   0.465778   0.387689  -0.046542
     8  H   -0.016189   0.581964   0.002602   0.001809   0.001094   0.000183
     9  O    0.546490   0.002602   7.586066  -0.044010  -0.019985   0.319910
    10  O    0.465778   0.001809  -0.044010   7.864109  -0.028517  -0.003324
    11  H    0.387689   0.001094  -0.019985  -0.028517   0.771232   0.007071
    12  H   -0.046542   0.000183   0.319910  -0.003324   0.007071   0.384896
    13  C   -0.046152   0.000031  -0.005809   0.263459   0.002283   0.001366
    14  H    0.006664   0.000005  -0.000006  -0.041705  -0.000254   0.000028
    15  H   -0.017323  -0.000004  -0.000778  -0.043197   0.011396  -0.000168
    16  H   -0.007175  -0.000022   0.006257  -0.046747  -0.002257   0.000921
             13         14         15         16
     1  H    0.000008  -0.000004   0.000000   0.000002
     2  C   -0.000001   0.000223  -0.000016  -0.000181
     3  C    0.002743  -0.000476  -0.000232   0.000973
     4  H    0.000064   0.000000  -0.000001  -0.000008
     5  H   -0.000170  -0.000168   0.000084   0.000041
     6  H   -0.000134  -0.000001   0.000007   0.000015
     7  Si  -0.046152   0.006664  -0.017323  -0.007175
     8  H    0.000031   0.000005  -0.000004  -0.000022
     9  O   -0.005809  -0.000006  -0.000778   0.006257
    10  O    0.263459  -0.041705  -0.043197  -0.046747
    11  H    0.002283  -0.000254   0.011396  -0.002257
    12  H    0.001366   0.000028  -0.000168   0.000921
    13  C    4.758829   0.405875   0.417938   0.410995
    14  H    0.405875   0.567913  -0.030279  -0.035546
    15  H    0.417938  -0.030279   0.595627  -0.050682
    16  H    0.410995  -0.035546  -0.050682   0.614927
 Mulliken atomic charges:
              1
     1  H    0.130736
     2  C   -0.400369
     3  C   -0.335447
     4  H    0.097376
     5  H    0.144905
     6  H    0.115294
     7  Si   0.459277
     8  H    0.113573
     9  O   -0.346710
    10  O   -0.359833
    11  H   -0.094885
    12  H    0.333565
    13  C   -0.211327
    14  H    0.127730
    15  H    0.117628
    16  H    0.108487
 Sum of Mulliken atomic charges =   0.00000
 Mulliken charges with hydrogens summed into heavy atoms:
              1
     2  C   -0.027352
     3  C   -0.106580
     7  Si   0.364392
     9  O   -0.013145
    10  O   -0.359833
    13  C    0.142518
 Sum of Mulliken charges with hydrogens summed into heavy atoms =   0.00000
 Electronic spatial extent (au):  <R**2>=            837.8595
 Charge=              0.0000 electrons
 Dipole moment (field-independent basis, Debye):
    X=             -0.2553    Y=              0.0601    Z=             -1.6323  Tot=              1.6532
 Quadrupole moment (field-independent basis, Debye-Ang):
   XX=            -41.8720   YY=            -47.9387   ZZ=            -42.8343
   XY=             -1.4492   XZ=             -0.1444   YZ=             -1.8247
 Traceless Quadrupole moment (field-independent basis, Debye-Ang):
   XX=              2.3430   YY=             -3.7237   ZZ=              1.3807
   XY=             -1.4492   XZ=             -0.1444   YZ=             -1.8247
 Octapole moment (field-independent basis, Debye-Ang**2):
  XXX=             14.6516  YYY=             -2.3484  ZZZ=            -12.9521  XYY=              0.0056
  XXY=             -1.1844  XXZ=             -1.2901  XZZ=              0.4404  YZZ=              3.4771
  YYZ=             -2.7235  XYZ=              1.3390
 Hexadecapole moment (field-independent basis, Debye-Ang**3):
 XXXX=           -714.9064 YYYY=           -257.5676 ZZZZ=           -150.3561 XXXY=            -12.0762
 XXXZ=             -4.2544 YYYX=            -11.4223 YYYZ=             -6.1732 ZZZX=             -1.7611
 ZZZY=            -20.9826 XXYY=           -158.6799 XXZZ=           -151.0563 YYZZ=            -66.4182
 XXYZ=             -3.1142 YYXZ=             -2.1615 ZZXY=             -4.6005
 N-N= 3.406531615498D+02 E-N=-2.006090037669D+03  KE= 5.591818448486D+02
 1\1\GINC-TARSUS2\SP\RPBE1PBE\def2TZVP\C3H10O2Si1\RENATO\10-Aug-2018\0\
 \#SP PBE1PBE/Def2TZVP geom=connectivity\\Structure: 36\\0,1\H,0,0.,0.,
 0.\C,0,1.093,0.,0.\C,0,1.655,1.421,0.\H,0,1.41,-0.56,-0.885\H,0,1.424,
 -0.557,0.88\H,0,1.308,1.969,-0.883\Si,0,3.513,1.515,0.035\H,0,1.282,1.
 975,0.868\O,0,4.1,0.9,-1.044\O,0,3.968,0.824,1.454\H,0,4.029,2.906,-0.
 04\H,0,3.861,-0.012,-1.218\C,0,5.301,0.766,1.905\H,0,5.308,0.322,2.902
 \H,0,5.747,1.766,1.967\H,0,5.921,0.153,1.244\\Version=EM64L-G09RevC.01
 \State=1-A\HF=-559.9867913\RMSD=9.858e-09\Dipole=0.0499765,-0.5986476,
 -0.2493605\Quadrupole=0.6527905,-0.3930459,-0.2597446,-1.2566399,1.734
 9947,1.9939075\PG=C01 [X(C3H10O2Si1)]\\@


 Children are likely to live up to what you believe of them.
 -- Lady Bird Johnson
 Job cpu time:  0 days  0 hours  8 minutes 23.1 seconds.
 File lengths (MBytes):  RWF=     40 Int=      0 D2E=      0 Chk=      3 Scr=      1
 Normal termination of Gaussian 09 at Fri Aug 10 06:08:37 2018.
