 Entering Gaussian System, Link 0=g09
 Initial command:
 /usr/local/gaussian09/g09/l1.exe /scratch/renato/Gau-10761.inp -scrdir=/scratch/renato/
 Entering Link 1 = /usr/local/gaussian09/g09/l1.exe PID=     10763.
  
 Copyright (c) 1988,1990,1992,1993,1995,1998,2003,2009,2011,
            Gaussian, Inc.  All Rights Reserved.
  
 This is part of the Gaussian(R) 09 program.  It is based on
 the Gaussian(R) 03 system (copyright 2003, Gaussian, Inc.),
 the Gaussian(R) 98 system (copyright 1998, Gaussian, Inc.),
 the Gaussian(R) 94 system (copyright 1995, Gaussian, Inc.),
 the Gaussian 92(TM) system (copyright 1992, Gaussian, Inc.),
 the Gaussian 90(TM) system (copyright 1990, Gaussian, Inc.),
 the Gaussian 88(TM) system (copyright 1988, Gaussian, Inc.),
 the Gaussian 86(TM) system (copyright 1986, Carnegie Mellon
 University), and the Gaussian 82(TM) system (copyright 1983,
 Carnegie Mellon University). Gaussian is a federally registered
 trademark of Gaussian, Inc.
  
 This software contains proprietary and confidential information,
 including trade secrets, belonging to Gaussian, Inc.
  
 This software is provided under written license and may be
 used, copied, transmitted, or stored only in accord with that
 written license.
  
 The following legend is applicable only to US Government
 contracts under FAR:
  
                    RESTRICTED RIGHTS LEGEND
  
 Use, reproduction and disclosure by the US Government is
 subject to restrictions as set forth in subparagraphs (a)
 and (c) of the Commercial Computer Software - Restricted
 Rights clause in FAR 52.227-19.
  
 Gaussian, Inc.
 340 Quinnipiac St., Bldg. 40, Wallingford CT 06492
  
  
 ---------------------------------------------------------------
 Warning -- This program may not be used in any manner that
 competes with the business of Gaussian, Inc. or will provide
 assistance to any competitor of Gaussian, Inc.  The licensee
 of this program is prohibited from giving any competitor of
 Gaussian, Inc. access to this program.  By using this program,
 the user acknowledges that Gaussian, Inc. is engaged in the
 business of creating and licensing software in the field of
 computational chemistry and represents and warrants to the
 licensee that it is not a competitor of Gaussian, Inc. and that
 it will not use this program in any manner prohibited above.
 ---------------------------------------------------------------
  

 Cite this work as:
 Gaussian 09, Revision C.01,
 M. J. Frisch, G. W. Trucks, H. B. Schlegel, G. E. Scuseria, 
 M. A. Robb, J. R. Cheeseman, G. Scalmani, V. Barone, B. Mennucci, 
 G. A. Petersson, H. Nakatsuji, M. Caricato, X. Li, H. P. Hratchian, 
 A. F. Izmaylov, J. Bloino, G. Zheng, J. L. Sonnenberg, M. Hada, 
 M. Ehara, K. Toyota, R. Fukuda, J. Hasegawa, M. Ishida, T. Nakajima, 
 Y. Honda, O. Kitao, H. Nakai, T. Vreven, J. A. Montgomery, Jr., 
 J. E. Peralta, F. Ogliaro, M. Bearpark, J. J. Heyd, E. Brothers, 
 K. N. Kudin, V. N. Staroverov, T. Keith, R. Kobayashi, J. Normand, 
 K. Raghavachari, A. Rendell, J. C. Burant, S. S. Iyengar, J. Tomasi, 
 M. Cossi, N. Rega, J. M. Millam, M. Klene, J. E. Knox, J. B. Cross, 
 V. Bakken, C. Adamo, J. Jaramillo, R. Gomperts, R. E. Stratmann, 
 O. Yazyev, A. J. Austin, R. Cammi, C. Pomelli, J. W. Ochterski, 
 R. L. Martin, K. Morokuma, V. G. Zakrzewski, G. A. Voth, 
 P. Salvador, J. J. Dannenberg, S. Dapprich, A. D. Daniels, 
 O. Farkas, J. B. Foresman, J. V. Ortiz, J. Cioslowski, 
 and D. J. Fox, Gaussian, Inc., Wallingford CT, 2010.
 
 ******************************************
 Gaussian 09:  EM64L-G09RevC.01 23-Sep-2011
                10-Aug-2018 
 ******************************************
 %nproc=2
 Will use up to    2 processors via shared memory.
 %mem=256MB
 %RWF=bm3.rwf
 %chk=bm359
 %NoSave
 --------------------------------------
 #SP PBE1PBE/Def2TZVP geom=connectivity
 --------------------------------------
 1/38=1,57=2/1;
 2/12=2,17=6,18=5,40=1/2;
 3/5=44,7=101,11=2,16=1,25=1,30=1,74=-13/1,2,3;
 4//1;
 5/5=2,38=5/2;
 6/7=2,8=2,9=2,10=2,28=1/1;
 99/5=1,9=1/99;
 -------------
 Structure: 59
 -------------
 Charge =  0 Multiplicity = 1
 Symbolic Z-Matrix:
 H                     0.        0.        0. 
 C                     1.093     0.        0. 
 C                     1.655     1.421     0. 
 H                     1.41     -0.56     -0.885 
 H                     1.424    -0.557     0.88 
 H                     1.308     1.969    -0.883 
 Si                    3.513     1.515     0.035 
 H                     1.282     1.975     0.868 
 O                     4.12      0.879    -1.08 
 O                     3.968     0.824     1.454 
 H                     4.029     2.906    -0.04 
 H                     3.881    -0.032    -1.254 
 C                     5.301     0.766     1.905 
 H                     5.308     0.322     2.902 
 H                     5.747     1.766     1.967 
 H                     5.921     0.153     1.244 
 
                          Input orientation:                          
 ---------------------------------------------------------------------
 Center     Atomic      Atomic             Coordinates (Angstroms)
 Number     Number       Type             X           Y           Z
 ---------------------------------------------------------------------
      1          1           0        0.000000    0.000000    0.000000
      2          6           0        1.093000    0.000000    0.000000
      3          6           0        1.655000    1.421000    0.000000
      4          1           0        1.410000   -0.560000   -0.885000
      5          1           0        1.424000   -0.557000    0.880000
      6          1           0        1.308000    1.969000   -0.883000
      7         14           0        3.513000    1.515000    0.035000
      8          1           0        1.282000    1.975000    0.868000
      9          8           0        4.120000    0.879000   -1.080000
     10          8           0        3.968000    0.824000    1.454000
     11          1           0        4.029000    2.906000   -0.040000
     12          1           0        3.881000   -0.032000   -1.254000
     13          6           0        5.301000    0.766000    1.905000
     14          1           0        5.308000    0.322000    2.902000
     15          1           0        5.747000    1.766000    1.967000
     16          1           0        5.921000    0.153000    1.244000
 ---------------------------------------------------------------------
                    Distance matrix (angstroms):
                    1          2          3          4          5
     1  H    0.000000
     2  C    1.093000   0.000000
     3  C    2.181345   1.528098   0.000000
     4  H    1.756395   1.094218   2.183486   0.000000
     5  H    1.764207   1.092799   2.177210   1.765058   0.000000
     6  H    2.523393   2.168611   1.095629   2.531057   3.082580
     7  Si   3.825914   2.855320   1.860706   3.094291   3.061230
     8  H    2.509497   2.165588   1.095203   3.084740   2.536007
     9  O    4.348959   3.331932   2.745248   3.074548   3.629340
    10  O    4.305591   3.325465   2.796515   3.732257   2.951029
    11  H    4.967824   4.131166   2.800482   4.425646   4.429988
    12  H    4.078689   3.057202   2.939184   2.553583   3.296427
    13  C    5.684750   4.682205   4.165497   4.968124   4.222805
    14  H    6.058065   5.127525   4.793101   5.505788   4.466160
    15  H    6.325809   5.352342   4.553304   5.688036   5.026552
    16  H    6.052205   4.988039   4.621051   5.038862   4.567232
                    6          7          8          9         10
     6  H    0.000000
     7  Si   2.431227   0.000000
     8  H    1.751203   2.425459   0.000000
     9  O    3.022293   1.419919   3.612501   0.000000
    10  O    3.721316   1.642579   2.980401   2.539150   0.000000
    11  H    2.998743   1.485517   3.039282   2.280046   2.563295
    12  H    3.280544   2.046987   3.909697   0.957767   2.841403
    13  C    5.016393   2.693482   4.323125   3.212126   1.408423
    14  H    5.747942   3.586776   4.803982   4.192603   2.035757
    15  H    5.279056   2.964183   4.603011   3.566246   2.077348
    16  H    5.394604   3.019137   4.998138   3.028474   2.075705
                   11         12         13         14         15
    11  H    0.000000
    12  H    3.182380   0.000000
    13  C    3.159210   3.554221   0.000000
    14  H    4.119255   4.408399   1.091418   0.000000
    15  H    2.877355   4.133957   1.096704   1.775410   0.000000
    16  H    3.578733   3.230453   1.094116   1.775752   1.776168
                   16
    16  H    0.000000
 Stoichiometry    C3H10O2Si
 Framework group  C1[X(C3H10O2Si)]
 Deg. of freedom    42
 Full point group                 C1      NOp   1
 Largest Abelian subgroup         C1      NOp   1
 Largest concise Abelian subgroup C1      NOp   1
                         Standard orientation:                         
 ---------------------------------------------------------------------
 Center     Atomic      Atomic             Coordinates (Angstroms)
 Number     Number       Type             X           Y           Z
 ---------------------------------------------------------------------
      1          1           0       -3.226308   -1.235814   -0.349873
      2          6           0       -2.232653   -0.834029   -0.564037
      3          6           0       -1.618888   -0.167266    0.666330
      4          1           0       -2.348043   -0.127324   -1.391423
      5          1           0       -1.611054   -1.659898   -0.918672
      6          1           0       -2.256914    0.652423    1.014806
      7         14           0        0.091397    0.515660    0.400318
      8          1           0       -1.561815   -0.881679    1.494476
      9          8           0        0.139796    1.504867   -0.617178
     10          8           0        1.037137   -0.777910    0.039323
     11          1           0        0.630405    1.221183    1.591314
     12          1           0       -0.214794    1.273685   -1.476328
     13          6           0        2.429792   -0.699857   -0.155804
     14          1           0        2.813014   -1.710232   -0.309024
     15          1           0        2.933064   -0.266121    0.716750
     16          1           0        2.677915   -0.094212   -1.032570
 ---------------------------------------------------------------------
 Rotational constants (GHZ):      4.5041747      1.9215050      1.6301294
 Standard basis: def2TZVP (5D, 7F)
 There are   252 symmetry adapted basis functions of A   symmetry.
 Integral buffers will be    131072 words long.
 Raffenetti 2 integral format.
 Two-electron integral symmetry is turned on.
   252 basis functions,   404 primitive gaussians,   282 cartesian basis functions
    29 alpha electrons       29 beta electrons
       nuclear repulsion energy       338.5822793464 Hartrees.
 NAtoms=   16 NActive=   16 NUniq=   16 SFac= 1.00D+00 NAtFMM=   60 NAOKFM=F Big=F
 One-electron integrals computed using PRISM.
   1 Symmetry operations used in ECPInt.
 ECPInt:  NShTT=    5886 NPrTT=   17754 LenC2=    5784 LenP2D=   13974.
 LDataN:  DoStor=T MaxTD1= 6 Len=  172
 NBasis=   252 RedAO= T  NBF=   252
 NBsUse=   252 1.00D-06 NBFU=   252
 Harris functional with IExCor= 1009 diagonalized for initial guess.
 ExpMin= 7.01D-02 ExpMax= 4.48D+04 ExpMxC= 1.53D+03 IAcc=2 IRadAn=         4 AccDes= 0.00D+00
 HarFok:  IExCor= 1009 AccDes= 0.00D+00 IRadAn=         4 IDoV= 1
 ScaDFX=  1.000000  1.000000  1.000000  1.000000
 FoFCou: FMM=F IPFlag=           0 FMFlag=      100000 FMFlg1=           0
         NFxFlg=           0 DoJE=T BraDBF=F KetDBF=T FulRan=T
         Omega=  0.000000  0.000000  1.000000  0.000000  0.000000 ICntrl=     500 IOpCl=  0
         NMat0=    1 NMatS0=    1 NMatT0=    0 NMatD0=    1 NMtDS0=    0 NMtDT0=    0
         I1Cent=           4 NGrid=           0.
 Petite list used in FoFCou.
 Initial guess orbital symmetries:
       Occupied  (A) (A) (A) (A) (A) (A) (A) (A) (A) (A) (A) (A)
                 (A) (A) (A) (A) (A) (A) (A) (A) (A) (A) (A) (A)
                 (A) (A) (A) (A) (A)
       Virtual   (A) (A) (A) (A) (A) (A) (A) (A) (A) (A) (A) (A)
                 (A) (A) (A) (A) (A) (A) (A) (A) (A) (A) (A) (A)
                 (A) (A) (A) (A) (A) (A) (A) (A) (A) (A) (A) (A)
                 (A) (A) (A) (A) (A) (A) (A) (A) (A) (A) (A) (A)
                 (A) (A) (A) (A) (A) (A) (A) (A) (A) (A) (A) (A)
                 (A) (A) (A) (A) (A) (A) (A) (A) (A) (A) (A) (A)
                 (A) (A) (A) (A) (A) (A) (A) (A) (A) (A) (A) (A)
                 (A) (A) (A) (A) (A) (A) (A) (A) (A) (A) (A) (A)
                 (A) (A) (A) (A) (A) (A) (A) (A) (A) (A) (A) (A)
                 (A) (A) (A) (A) (A) (A) (A) (A) (A) (A) (A) (A)
                 (A) (A) (A) (A) (A) (A) (A) (A) (A) (A) (A) (A)
                 (A) (A) (A) (A) (A) (A) (A) (A) (A) (A) (A) (A)
                 (A) (A) (A) (A) (A) (A) (A) (A) (A) (A) (A) (A)
                 (A) (A) (A) (A) (A) (A) (A) (A) (A) (A) (A) (A)
                 (A) (A) (A) (A) (A) (A) (A) (A) (A) (A) (A) (A)
                 (A) (A) (A) (A) (A) (A) (A) (A) (A) (A) (A) (A)
                 (A) (A) (A) (A) (A) (A) (A) (A) (A) (A) (A) (A)
                 (A) (A) (A) (A) (A) (A) (A) (A) (A) (A) (A) (A)
                 (A) (A) (A) (A) (A) (A) (A)
 The electronic state of the initial guess is 1-A.
 Requested convergence on RMS density matrix=1.00D-08 within 128 cycles.
 Requested convergence on MAX density matrix=1.00D-06.
 Requested convergence on             energy=1.00D-06.
 No special actions if energy rises.
 Integral accuracy reduced to 1.0D-05 until final iterations.
 Initial convergence to 1.0D-05 achieved.  Increase integral accuracy.
 SCF Done:  E(RPBE1PBE) =  -560.014528001     A.U. after   13 cycles
             Convg  =    0.3327D-08             -V/T =  2.0019

 **********************************************************************

            Population analysis using the SCF density.

 **********************************************************************

 Orbital symmetries:
       Occupied  (A) (A) (A) (A) (A) (A) (A) (A) (A) (A) (A) (A)
                 (A) (A) (A) (A) (A) (A) (A) (A) (A) (A) (A) (A)
                 (A) (A) (A) (A) (A)
       Virtual   (A) (A) (A) (A) (A) (A) (A) (A) (A) (A) (A) (A)
                 (A) (A) (A) (A) (A) (A) (A) (A) (A) (A) (A) (A)
                 (A) (A) (A) (A) (A) (A) (A) (A) (A) (A) (A) (A)
                 (A) (A) (A) (A) (A) (A) (A) (A) (A) (A) (A) (A)
                 (A) (A) (A) (A) (A) (A) (A) (A) (A) (A) (A) (A)
                 (A) (A) (A) (A) (A) (A) (A) (A) (A) (A) (A) (A)
                 (A) (A) (A) (A) (A) (A) (A) (A) (A) (A) (A) (A)
                 (A) (A) (A) (A) (A) (A) (A) (A) (A) (A) (A) (A)
                 (A) (A) (A) (A) (A) (A) (A) (A) (A) (A) (A) (A)
                 (A) (A) (A) (A) (A) (A) (A) (A) (A) (A) (A) (A)
                 (A) (A) (A) (A) (A) (A) (A) (A) (A) (A) (A) (A)
                 (A) (A) (A) (A) (A) (A) (A) (A) (A) (A) (A) (A)
                 (A) (A) (A) (A) (A) (A) (A) (A) (A) (A) (A) (A)
                 (A) (A) (A) (A) (A) (A) (A) (A) (A) (A) (A) (A)
                 (A) (A) (A) (A) (A) (A) (A) (A) (A) (A) (A) (A)
                 (A) (A) (A) (A) (A) (A) (A) (A) (A) (A) (A) (A)
                 (A) (A) (A) (A) (A) (A) (A) (A) (A) (A) (A) (A)
                 (A) (A) (A) (A) (A) (A) (A) (A) (A) (A) (A) (A)
                 (A) (A) (A) (A) (A) (A) (A)
 The electronic state is 1-A.
 Alpha  occ. eigenvalues --  -66.21991 -19.21193 -19.18948 -10.26089 -10.21546
 Alpha  occ. eigenvalues --  -10.19896  -5.30701  -3.64347  -3.64014  -3.63852
 Alpha  occ. eigenvalues --   -1.09239  -1.02765  -0.77745  -0.70036  -0.63803
 Alpha  occ. eigenvalues --   -0.60373  -0.51444  -0.46894  -0.46521  -0.46019
 Alpha  occ. eigenvalues --   -0.43412  -0.42127  -0.40651  -0.39419  -0.36536
 Alpha  occ. eigenvalues --   -0.35735  -0.31306  -0.29832  -0.28725
 Alpha virt. eigenvalues --    0.01977   0.06110   0.06502   0.08395   0.09114
 Alpha virt. eigenvalues --    0.10483   0.11311   0.11979   0.12522   0.13531
 Alpha virt. eigenvalues --    0.15137   0.15490   0.16846   0.17478   0.19698
 Alpha virt. eigenvalues --    0.21564   0.22481   0.24053   0.24859   0.25221
 Alpha virt. eigenvalues --    0.26593   0.28998   0.29142   0.30750   0.32893
 Alpha virt. eigenvalues --    0.34033   0.36512   0.39057   0.40986   0.41295
 Alpha virt. eigenvalues --    0.42254   0.42848   0.44491   0.45121   0.46308
 Alpha virt. eigenvalues --    0.46779   0.47692   0.48093   0.50475   0.51196
 Alpha virt. eigenvalues --    0.52872   0.53702   0.55558   0.57398   0.59549
 Alpha virt. eigenvalues --    0.60726   0.63646   0.66006   0.67466   0.68121
 Alpha virt. eigenvalues --    0.74379   0.75847   0.76540   0.79242   0.83080
 Alpha virt. eigenvalues --    0.84291   0.84565   0.86394   0.89028   0.92227
 Alpha virt. eigenvalues --    0.93987   0.95950   0.98480   1.00524   1.01656
 Alpha virt. eigenvalues --    1.05055   1.07622   1.09955   1.11341   1.11410
 Alpha virt. eigenvalues --    1.12598   1.15905   1.19823   1.21223   1.23553
 Alpha virt. eigenvalues --    1.26213   1.32073   1.34869   1.38306   1.42338
 Alpha virt. eigenvalues --    1.43393   1.47634   1.50678   1.51181   1.53225
 Alpha virt. eigenvalues --    1.54606   1.55196   1.55928   1.56897   1.58680
 Alpha virt. eigenvalues --    1.59726   1.63517   1.64784   1.66150   1.67223
 Alpha virt. eigenvalues --    1.69143   1.74074   1.77286   1.80034   1.81154
 Alpha virt. eigenvalues --    1.82478   1.85173   1.87922   1.90450   1.93836
 Alpha virt. eigenvalues --    1.95867   1.96919   2.00773   2.04136   2.07017
 Alpha virt. eigenvalues --    2.07185   2.09506   2.14118   2.14734   2.17289
 Alpha virt. eigenvalues --    2.19040   2.21619   2.25544   2.30481   2.31853
 Alpha virt. eigenvalues --    2.33691   2.34566   2.35428   2.36497   2.37601
 Alpha virt. eigenvalues --    2.39614   2.41737   2.47406   2.48619   2.51562
 Alpha virt. eigenvalues --    2.52461   2.53811   2.55621   2.56658   2.58855
 Alpha virt. eigenvalues --    2.60732   2.61899   2.66545   2.68878   2.72384
 Alpha virt. eigenvalues --    2.74407   2.79829   2.81111   2.85997   2.88403
 Alpha virt. eigenvalues --    2.91460   2.95010   2.98398   3.00428   3.05717
 Alpha virt. eigenvalues --    3.09611   3.11245   3.11795   3.15404   3.16602
 Alpha virt. eigenvalues --    3.22577   3.22908   3.24389   3.30274   3.31104
 Alpha virt. eigenvalues --    3.33057   3.33594   3.38617   3.41086   3.45097
 Alpha virt. eigenvalues --    3.45873   3.46929   3.53545   3.54128   3.58746
 Alpha virt. eigenvalues --    3.59884   3.62884   3.66110   3.72416   3.77405
 Alpha virt. eigenvalues --    3.82094   3.92923   3.95939   4.02969   4.12414
 Alpha virt. eigenvalues --    4.20149   4.24615   4.26000   4.34662   4.37495
 Alpha virt. eigenvalues --    4.42012   4.47726   4.54055   4.57890   4.79281
 Alpha virt. eigenvalues --    5.14404   5.15688   5.20224   5.24392   5.31179
 Alpha virt. eigenvalues --    5.38064   5.41962   5.46369   5.48232   5.62008
 Alpha virt. eigenvalues --    5.81218   5.87585   6.04455   6.27780   6.45140
 Alpha virt. eigenvalues --    6.46053   6.58451   6.61145   6.64353   6.72946
 Alpha virt. eigenvalues --    6.79740   6.83036   6.88734   7.01173   7.12520
 Alpha virt. eigenvalues --    7.18571   7.22431  12.15425  22.37379  22.41438
 Alpha virt. eigenvalues --   22.46555  43.77896  43.96510
          Condensed to atoms (all electrons):
              1          2          3          4          5          6
     1  H    0.548875   0.409661  -0.032714  -0.025091  -0.023906  -0.006803
     2  C    0.409661   4.946098   0.303796   0.401759   0.414298  -0.033014
     3  C   -0.032714   0.303796   5.079389  -0.046441  -0.041699   0.384932
     4  H   -0.025091   0.401759  -0.046441   0.598308  -0.029766  -0.004895
     5  H   -0.023906   0.414298  -0.041699  -0.029766   0.531845   0.007994
     6  H   -0.006803  -0.033014   0.384932  -0.004895   0.007994   0.584672
     7  Si   0.007025  -0.016732   0.430730  -0.008753  -0.006294  -0.025555
     8  H   -0.007314  -0.025624   0.367608   0.009023  -0.004109  -0.025005
     9  O   -0.000053  -0.001142  -0.044326   0.003296  -0.000477  -0.001682
    10  O   -0.000005  -0.004508  -0.032156   0.000472   0.007331   0.001308
    11  H   -0.000110   0.002317  -0.038743   0.000205   0.000436   0.001771
    12  H   -0.000176   0.002092  -0.003618   0.003225   0.000114   0.000110
    13  C    0.000008  -0.000011   0.002618   0.000068  -0.000152  -0.000133
    14  H   -0.000004   0.000223  -0.000465   0.000000  -0.000166  -0.000001
    15  H    0.000000  -0.000022  -0.000190  -0.000001   0.000084   0.000007
    16  H    0.000002  -0.000172   0.000940  -0.000009   0.000035   0.000014
              7          8          9         10         11         12
     1  H    0.007025  -0.007314  -0.000053  -0.000005  -0.000110  -0.000176
     2  C   -0.016732  -0.025624  -0.001142  -0.004508   0.002317   0.002092
     3  C    0.430730   0.367608  -0.044326  -0.032156  -0.038743  -0.003618
     4  H   -0.008753   0.009023   0.003296   0.000472   0.000205   0.003225
     5  H   -0.006294  -0.004109  -0.000477   0.007331   0.000436   0.000114
     6  H   -0.025555  -0.025005  -0.001682   0.001308   0.001771   0.000110
     7  Si  11.876216  -0.015662   0.540892   0.461691   0.388612  -0.041602
     8  H   -0.015662   0.581417   0.002474   0.001816   0.001013   0.000125
     9  O    0.540892   0.002474   7.628318  -0.043627  -0.019316   0.315879
    10  O    0.461691   0.001816  -0.043627   7.861595  -0.028113  -0.002750
    11  H    0.388612   0.001013  -0.019316  -0.028113   0.763519   0.006478
    12  H   -0.041602   0.000125   0.315879  -0.002750   0.006478   0.387749
    13  C   -0.046798   0.000036  -0.006206   0.263308   0.002334   0.001241
    14  H    0.006835   0.000004   0.000011  -0.041590  -0.000249   0.000026
    15  H   -0.017463  -0.000007  -0.000716  -0.043126   0.011182  -0.000135
    16  H   -0.006665  -0.000021   0.006329  -0.046276  -0.002218   0.000791
             13         14         15         16
     1  H    0.000008  -0.000004   0.000000   0.000002
     2  C   -0.000011   0.000223  -0.000022  -0.000172
     3  C    0.002618  -0.000465  -0.000190   0.000940
     4  H    0.000068   0.000000  -0.000001  -0.000009
     5  H   -0.000152  -0.000166   0.000084   0.000035
     6  H   -0.000133  -0.000001   0.000007   0.000014
     7  Si  -0.046798   0.006835  -0.017463  -0.006665
     8  H    0.000036   0.000004  -0.000007  -0.000021
     9  O   -0.006206   0.000011  -0.000716   0.006329
    10  O    0.263308  -0.041590  -0.043126  -0.046276
    11  H    0.002334  -0.000249   0.011182  -0.002218
    12  H    0.001241   0.000026  -0.000135   0.000791
    13  C    4.760100   0.405365   0.418021   0.411212
    14  H    0.405365   0.567741  -0.030316  -0.035272
    15  H    0.418021  -0.030316   0.595335  -0.050185
    16  H    0.411212  -0.035272  -0.050185   0.611175
 Mulliken atomic charges:
              1
     1  H    0.130605
     2  C   -0.399018
     3  C   -0.329660
     4  H    0.098600
     5  H    0.144432
     6  H    0.116278
     7  Si   0.473524
     8  H    0.114226
     9  O   -0.379654
    10  O   -0.355369
    11  H   -0.089118
    12  H    0.330452
    13  C   -0.211012
    14  H    0.127860
    15  H    0.117533
    16  H    0.110319
 Sum of Mulliken atomic charges =   0.00000
 Mulliken charges with hydrogens summed into heavy atoms:
              1
     2  C   -0.025381
     3  C   -0.099156
     7  Si   0.384406
     9  O   -0.049201
    10  O   -0.355369
    13  C    0.144701
 Sum of Mulliken charges with hydrogens summed into heavy atoms =   0.00000
 Electronic spatial extent (au):  <R**2>=            842.4418
 Charge=              0.0000 electrons
 Dipole moment (field-independent basis, Debye):
    X=             -0.2598    Y=             -0.0180    Z=             -1.4977  Tot=              1.5202
 Quadrupole moment (field-independent basis, Debye-Ang):
   XX=            -41.7678   YY=            -48.1171   ZZ=            -42.8543
   XY=             -1.4774   XZ=             -0.1517   YZ=             -1.7967
 Traceless Quadrupole moment (field-independent basis, Debye-Ang):
   XX=              2.4786   YY=             -3.8707   ZZ=              1.3921
   XY=             -1.4774   XZ=             -0.1517   YZ=             -1.7967
 Octapole moment (field-independent basis, Debye-Ang**2):
  XXX=             14.6085  YYY=             -2.8981  ZZZ=            -12.6478  XYY=             -0.1101
  XXY=             -1.3112  XXZ=             -1.2783  XZZ=              0.4597  YZZ=              3.7772
  YYZ=             -2.7533  XYZ=              1.4329
 Hexadecapole moment (field-independent basis, Debye-Ang**3):
 XXXX=           -713.4336 YYYY=           -262.2383 ZZZZ=           -153.3804 XXXY=            -12.1340
 XXXZ=             -4.6421 YYYX=            -11.4261 YYYZ=             -5.9380 ZZZX=             -1.9224
 ZZZY=            -21.0084 XXYY=           -159.1283 XXZZ=           -151.1623 YYZZ=            -66.2039
 XXYZ=             -2.7156 YYXZ=             -2.0487 ZZXY=             -4.6737
 N-N= 3.385822793464D+02 E-N=-2.001779579217D+03  KE= 5.589535022344D+02
 1\1\GINC-TARSUS2\SP\RPBE1PBE\def2TZVP\C3H10O2Si1\RENATO\10-Aug-2018\0\
 \#SP PBE1PBE/Def2TZVP geom=connectivity\\Structure: 59\\0,1\H,0,0.,0.,
 0.\C,0,1.093,0.,0.\C,0,1.655,1.421,0.\H,0,1.41,-0.56,-0.885\H,0,1.424,
 -0.557,0.88\H,0,1.308,1.969,-0.883\Si,0,3.513,1.515,0.035\H,0,1.282,1.
 975,0.868\O,0,4.12,0.879,-1.08\O,0,3.968,0.824,1.454\H,0,4.029,2.906,-
 0.04\H,0,3.881,-0.032,-1.254\C,0,5.301,0.766,1.905\H,0,5.308,0.322,2.9
 02\H,0,5.747,1.766,1.967\H,0,5.921,0.153,1.244\\Version=EM64L-G09RevC.
 01\State=1-A\HF=-560.014528\RMSD=3.327e-09\Dipole=0.0199181,-0.5655418
 ,-0.1935618\Quadrupole=0.6723614,-0.2541453,-0.418216,-1.2388378,1.881
 9711,1.988881\PG=C01 [X(C3H10O2Si1)]\\@


 THOUGH I SPEAK WITH THE TONGUES OF MEN AND OF ANGELS, 
 AND HAVE NOT LOVE,
 I AM BECOME AS SOUNDING BRASS, A TINKLING CYMBAL.
 AND THOUGH I HAVE THE GIFT OF PROPHECY,
 AND UNDERSTAND ALL MYSTERIES, AND ALL KNOWLEDGE.
 AND THOUGH I HAVE ALL FAITH, SO THAT I COULD REMOVE MOUNTAINS,
 AND HAVE NOT LOVE, I AM NOTHING.
 AND THOUGH I BESTOW ALL MY GOODS TO FEED THE POOR,
 AND THOUGH I GIVE MY BODY TO BE BURNED,
 AND HAVE NOT LOVE IT PROFITETH ME NOTHING.
 LOVE SUFFERETH LONG, AND IS KIND,
 LOVE ENVIETH NOT,
 LOVE VAUNTETH NOT ITSELF, IS NOT PUFFED UP,
 DOTH NOT BEHAVE ITSELF UNSEEMLY, SEEKETH NOT HER OWN,
 IS NOT EASILY PROVOKED, THINKETH NO EVIL,
 REJOICETH NOT IN INIQUITY, BUT REJOICETH IN THE TRUTH,
 BEARETH ALL THINGS, BELIEVETH ALL THINGS,
 HOPETH ALL THINGS, ENDURETH ALL THINGS.
 LOVE NEVER FAILETH, BUT WHETHER THERE BE PROPHECIES, THEY SHALL FAIL, 
 WHETHER THERE BE TONGUES, THEY SHALL CEASE,
 WHETHER THERE BE KNOWLEDGE, IT SHALL VANISH AWAY.
 FOR WE KNOW IN PART, AND WE PROPHESY IN PART.
 BUT WHEN THAT WHICH IS PERFECT IS COME, THEN THAT WHICH IS IN PART 
 SHALL BE DONE AWAY. 
 WHEN I WAS A CHILD, I SPAKE AS A CHILD, I UNDERSTOOD AS A CHILD, 
 I THOUGHT AS A CHILD.
 BUT WHEN I BECAME A MAN, I PUT AWAY CHILDISH THINGS.
 FOR NOW WE SEE THROUGH A GLASS, DARKLY, BUT THEN FACE TO FACE.
 NOW I KNOW IN PART. BUT THEN SHALL I KNOW EVEN AS ALSO I AM KNOWN.
 AND NOW ABIDETH FAITH, HOPE AND LOVE, THESE THREE.
 BUT THE GREATEST OF THESE IS LOVE.

                     I CORINTHIANS 13
 Job cpu time:  0 days  0 hours 14 minutes 25.7 seconds.
 File lengths (MBytes):  RWF=     40 Int=      0 D2E=      0 Chk=      3 Scr=      1
 Normal termination of Gaussian 09 at Fri Aug 10 03:42:43 2018.
