 Entering Gaussian System, Link 0=g09
 Initial command:
 /usr/local/gaussian09/g09/l1.exe /scratch/renato/Gau-10291.inp -scrdir=/scratch/renato/
 Entering Link 1 = /usr/local/gaussian09/g09/l1.exe PID=     10293.
  
 Copyright (c) 1988,1990,1992,1993,1995,1998,2003,2009,2011,
            Gaussian, Inc.  All Rights Reserved.
  
 This is part of the Gaussian(R) 09 program.  It is based on
 the Gaussian(R) 03 system (copyright 2003, Gaussian, Inc.),
 the Gaussian(R) 98 system (copyright 1998, Gaussian, Inc.),
 the Gaussian(R) 94 system (copyright 1995, Gaussian, Inc.),
 the Gaussian 92(TM) system (copyright 1992, Gaussian, Inc.),
 the Gaussian 90(TM) system (copyright 1990, Gaussian, Inc.),
 the Gaussian 88(TM) system (copyright 1988, Gaussian, Inc.),
 the Gaussian 86(TM) system (copyright 1986, Carnegie Mellon
 University), and the Gaussian 82(TM) system (copyright 1983,
 Carnegie Mellon University). Gaussian is a federally registered
 trademark of Gaussian, Inc.
  
 This software contains proprietary and confidential information,
 including trade secrets, belonging to Gaussian, Inc.
  
 This software is provided under written license and may be
 used, copied, transmitted, or stored only in accord with that
 written license.
  
 The following legend is applicable only to US Government
 contracts under FAR:
  
                    RESTRICTED RIGHTS LEGEND
  
 Use, reproduction and disclosure by the US Government is
 subject to restrictions as set forth in subparagraphs (a)
 and (c) of the Commercial Computer Software - Restricted
 Rights clause in FAR 52.227-19.
  
 Gaussian, Inc.
 340 Quinnipiac St., Bldg. 40, Wallingford CT 06492
  
  
 ---------------------------------------------------------------
 Warning -- This program may not be used in any manner that
 competes with the business of Gaussian, Inc. or will provide
 assistance to any competitor of Gaussian, Inc.  The licensee
 of this program is prohibited from giving any competitor of
 Gaussian, Inc. access to this program.  By using this program,
 the user acknowledges that Gaussian, Inc. is engaged in the
 business of creating and licensing software in the field of
 computational chemistry and represents and warrants to the
 licensee that it is not a competitor of Gaussian, Inc. and that
 it will not use this program in any manner prohibited above.
 ---------------------------------------------------------------
  

 Cite this work as:
 Gaussian 09, Revision C.01,
 M. J. Frisch, G. W. Trucks, H. B. Schlegel, G. E. Scuseria, 
 M. A. Robb, J. R. Cheeseman, G. Scalmani, V. Barone, B. Mennucci, 
 G. A. Petersson, H. Nakatsuji, M. Caricato, X. Li, H. P. Hratchian, 
 A. F. Izmaylov, J. Bloino, G. Zheng, J. L. Sonnenberg, M. Hada, 
 M. Ehara, K. Toyota, R. Fukuda, J. Hasegawa, M. Ishida, T. Nakajima, 
 Y. Honda, O. Kitao, H. Nakai, T. Vreven, J. A. Montgomery, Jr., 
 J. E. Peralta, F. Ogliaro, M. Bearpark, J. J. Heyd, E. Brothers, 
 K. N. Kudin, V. N. Staroverov, T. Keith, R. Kobayashi, J. Normand, 
 K. Raghavachari, A. Rendell, J. C. Burant, S. S. Iyengar, J. Tomasi, 
 M. Cossi, N. Rega, J. M. Millam, M. Klene, J. E. Knox, J. B. Cross, 
 V. Bakken, C. Adamo, J. Jaramillo, R. Gomperts, R. E. Stratmann, 
 O. Yazyev, A. J. Austin, R. Cammi, C. Pomelli, J. W. Ochterski, 
 R. L. Martin, K. Morokuma, V. G. Zakrzewski, G. A. Voth, 
 P. Salvador, J. J. Dannenberg, S. Dapprich, A. D. Daniels, 
 O. Farkas, J. B. Foresman, J. V. Ortiz, J. Cioslowski, 
 and D. J. Fox, Gaussian, Inc., Wallingford CT, 2010.
 
 ******************************************
 Gaussian 09:  EM64L-G09RevC.01 23-Sep-2011
                10-Aug-2018 
 ******************************************
 %nproc=2
 Will use up to    2 processors via shared memory.
 %mem=256MB
 %RWF=bm3.rwf
 %chk=bm353
 %NoSave
 --------------------------------------
 #SP PBE1PBE/Def2TZVP geom=connectivity
 --------------------------------------
 1/38=1,57=2/1;
 2/12=2,17=6,18=5,40=1/2;
 3/5=44,7=101,11=2,16=1,25=1,30=1,74=-13/1,2,3;
 4//1;
 5/5=2,38=5/2;
 6/7=2,8=2,9=2,10=2,28=1/1;
 99/5=1,9=1/99;
 -------------
 Structure: 53
 -------------
 Charge =  0 Multiplicity = 1
 Symbolic Z-Matrix:
 H                     0.        0.        0. 
 C                     1.093     0.        0. 
 C                     1.655     1.421     0. 
 H                     1.41     -0.56     -0.885 
 H                     1.424    -0.557     0.88 
 H                     1.308     1.969    -0.883 
 Si                    3.513     1.515     0.035 
 H                     1.282     1.975     0.868 
 O                     4.115     0.884    -1.07 
 O                     3.968     0.824     1.454 
 H                     4.029     2.906    -0.04 
 H                     3.876    -0.027    -1.244 
 C                     5.301     0.766     1.905 
 H                     5.308     0.322     2.902 
 H                     5.747     1.766     1.967 
 H                     5.921     0.153     1.244 
 
                          Input orientation:                          
 ---------------------------------------------------------------------
 Center     Atomic      Atomic             Coordinates (Angstroms)
 Number     Number       Type             X           Y           Z
 ---------------------------------------------------------------------
      1          1           0        0.000000    0.000000    0.000000
      2          6           0        1.093000    0.000000    0.000000
      3          6           0        1.655000    1.421000    0.000000
      4          1           0        1.410000   -0.560000   -0.885000
      5          1           0        1.424000   -0.557000    0.880000
      6          1           0        1.308000    1.969000   -0.883000
      7         14           0        3.513000    1.515000    0.035000
      8          1           0        1.282000    1.975000    0.868000
      9          8           0        4.115000    0.884000   -1.070000
     10          8           0        3.968000    0.824000    1.454000
     11          1           0        4.029000    2.906000   -0.040000
     12          1           0        3.876000   -0.027000   -1.244000
     13          6           0        5.301000    0.766000    1.905000
     14          1           0        5.308000    0.322000    2.902000
     15          1           0        5.747000    1.766000    1.967000
     16          1           0        5.921000    0.153000    1.244000
 ---------------------------------------------------------------------
                    Distance matrix (angstroms):
                    1          2          3          4          5
     1  H    0.000000
     2  C    1.093000   0.000000
     3  C    2.181345   1.528098   0.000000
     4  H    1.756395   1.094218   2.183486   0.000000
     5  H    1.764207   1.092799   2.177210   1.765058   0.000000
     6  H    2.523393   2.168611   1.095629   2.531057   3.082580
     7  Si   3.825914   2.855320   1.860706   3.094291   3.061230
     8  H    2.509497   2.165588   1.095203   3.084740   2.536007
     9  O    4.342762   3.325483   2.735849   3.071870   3.622218
    10  O    4.305591   3.325465   2.796515   3.732257   2.951029
    11  H    4.967824   4.131166   2.800482   4.425646   4.429988
    12  H    4.070828   3.048500   2.928665   2.548358   3.287032
    13  C    5.684750   4.682205   4.165497   4.968124   4.222805
    14  H    6.058065   5.127525   4.793101   5.505788   4.466160
    15  H    6.325809   5.352342   4.553304   5.688036   5.026552
    16  H    6.052205   4.988039   4.621051   5.038862   4.567232
                    6          7          8          9         10
     6  H    0.000000
     7  Si   2.431227   0.000000
     8  H    1.751203   2.425459   0.000000
     9  O    3.015202   1.407690   3.601668   0.000000
    10  O    3.721316   1.642579   2.980401   2.528989   0.000000
    11  H    2.998743   1.485517   3.039282   2.270854   2.563295
    12  H    3.272455   2.036019   3.898382   0.957767   2.830525
    13  C    5.016393   2.693482   4.323125   3.204863   1.408423
    14  H    5.747942   3.586776   4.803982   4.185197   2.035757
    15  H    5.279056   2.964183   4.603011   3.558752   2.077348
    16  H    5.394604   3.019137   4.998138   3.024995   2.075705
                   11         12         13         14         15
    11  H    0.000000
    12  H    3.174195   0.000000
    13  C    3.159210   3.546220   0.000000
    14  H    4.119255   4.400198   1.091418   0.000000
    15  H    2.877355   4.126259   1.096704   1.775410   0.000000
    16  H    3.578733   3.225611   1.094116   1.775752   1.776168
                   16
    16  H    0.000000
 Stoichiometry    C3H10O2Si
 Framework group  C1[X(C3H10O2Si)]
 Deg. of freedom    42
 Full point group                 C1      NOp   1
 Largest Abelian subgroup         C1      NOp   1
 Largest concise Abelian subgroup C1      NOp   1
                         Standard orientation:                         
 ---------------------------------------------------------------------
 Center     Atomic      Atomic             Coordinates (Angstroms)
 Number     Number       Type             X           Y           Z
 ---------------------------------------------------------------------
      1          1           0       -3.226201   -1.237286   -0.341862
      2          6           0       -2.232598   -0.836991   -0.559044
      3          6           0       -1.618814   -0.161139    0.666345
      4          1           0       -2.348114   -0.136401   -1.391596
      5          1           0       -1.610945   -1.665386   -0.907639
      6          1           0       -2.256895    0.661028    1.008828
      7         14           0        0.091387    0.519976    0.395199
      8          1           0       -1.561615   -0.869438    1.499718
      9          8           0        0.139541    1.492803   -0.621107
     10          8           0        1.037227   -0.776123    0.043660
     11          1           0        0.630408    1.234289    1.580937
     12          1           0       -0.215086    1.255276   -1.478509
     13          6           0        2.429861   -0.699373   -0.152131
     14          1           0        2.813170   -1.710812   -0.297944
     15          1           0        2.933151   -0.259184    0.717175
     16          1           0        2.677866   -0.100168   -1.033344
 ---------------------------------------------------------------------
 Rotational constants (GHZ):      4.5298188      1.9227265      1.6325954
 Standard basis: def2TZVP (5D, 7F)
 There are   252 symmetry adapted basis functions of A   symmetry.
 Integral buffers will be    131072 words long.
 Raffenetti 2 integral format.
 Two-electron integral symmetry is turned on.
   252 basis functions,   404 primitive gaussians,   282 cartesian basis functions
    29 alpha electrons       29 beta electrons
       nuclear repulsion energy       339.1252428522 Hartrees.
 NAtoms=   16 NActive=   16 NUniq=   16 SFac= 1.00D+00 NAtFMM=   60 NAOKFM=F Big=F
 One-electron integrals computed using PRISM.
   1 Symmetry operations used in ECPInt.
 ECPInt:  NShTT=    5886 NPrTT=   17754 LenC2=    5784 LenP2D=   13976.
 LDataN:  DoStor=T MaxTD1= 6 Len=  172
 NBasis=   252 RedAO= T  NBF=   252
 NBsUse=   252 1.00D-06 NBFU=   252
 Harris functional with IExCor= 1009 diagonalized for initial guess.
 ExpMin= 7.01D-02 ExpMax= 4.48D+04 ExpMxC= 1.53D+03 IAcc=2 IRadAn=         4 AccDes= 0.00D+00
 HarFok:  IExCor= 1009 AccDes= 0.00D+00 IRadAn=         4 IDoV= 1
 ScaDFX=  1.000000  1.000000  1.000000  1.000000
 FoFCou: FMM=F IPFlag=           0 FMFlag=      100000 FMFlg1=           0
         NFxFlg=           0 DoJE=T BraDBF=F KetDBF=T FulRan=T
         Omega=  0.000000  0.000000  1.000000  0.000000  0.000000 ICntrl=     500 IOpCl=  0
         NMat0=    1 NMatS0=    1 NMatT0=    0 NMatD0=    1 NMtDS0=    0 NMtDT0=    0
         I1Cent=           4 NGrid=           0.
 Petite list used in FoFCou.
 Initial guess orbital symmetries:
       Occupied  (A) (A) (A) (A) (A) (A) (A) (A) (A) (A) (A) (A)
                 (A) (A) (A) (A) (A) (A) (A) (A) (A) (A) (A) (A)
                 (A) (A) (A) (A) (A)
       Virtual   (A) (A) (A) (A) (A) (A) (A) (A) (A) (A) (A) (A)
                 (A) (A) (A) (A) (A) (A) (A) (A) (A) (A) (A) (A)
                 (A) (A) (A) (A) (A) (A) (A) (A) (A) (A) (A) (A)
                 (A) (A) (A) (A) (A) (A) (A) (A) (A) (A) (A) (A)
                 (A) (A) (A) (A) (A) (A) (A) (A) (A) (A) (A) (A)
                 (A) (A) (A) (A) (A) (A) (A) (A) (A) (A) (A) (A)
                 (A) (A) (A) (A) (A) (A) (A) (A) (A) (A) (A) (A)
                 (A) (A) (A) (A) (A) (A) (A) (A) (A) (A) (A) (A)
                 (A) (A) (A) (A) (A) (A) (A) (A) (A) (A) (A) (A)
                 (A) (A) (A) (A) (A) (A) (A) (A) (A) (A) (A) (A)
                 (A) (A) (A) (A) (A) (A) (A) (A) (A) (A) (A) (A)
                 (A) (A) (A) (A) (A) (A) (A) (A) (A) (A) (A) (A)
                 (A) (A) (A) (A) (A) (A) (A) (A) (A) (A) (A) (A)
                 (A) (A) (A) (A) (A) (A) (A) (A) (A) (A) (A) (A)
                 (A) (A) (A) (A) (A) (A) (A) (A) (A) (A) (A) (A)
                 (A) (A) (A) (A) (A) (A) (A) (A) (A) (A) (A) (A)
                 (A) (A) (A) (A) (A) (A) (A) (A) (A) (A) (A) (A)
                 (A) (A) (A) (A) (A) (A) (A) (A) (A) (A) (A) (A)
                 (A) (A) (A) (A) (A) (A) (A)
 The electronic state of the initial guess is 1-A.
 Requested convergence on RMS density matrix=1.00D-08 within 128 cycles.
 Requested convergence on MAX density matrix=1.00D-06.
 Requested convergence on             energy=1.00D-06.
 No special actions if energy rises.
 Integral accuracy reduced to 1.0D-05 until final iterations.
 Initial convergence to 1.0D-05 achieved.  Increase integral accuracy.
 SCF Done:  E(RPBE1PBE) =  -560.008056842     A.U. after   13 cycles
             Convg  =    0.3249D-08             -V/T =  2.0018

 **********************************************************************

            Population analysis using the SCF density.

 **********************************************************************

 Orbital symmetries:
       Occupied  (A) (A) (A) (A) (A) (A) (A) (A) (A) (A) (A) (A)
                 (A) (A) (A) (A) (A) (A) (A) (A) (A) (A) (A) (A)
                 (A) (A) (A) (A) (A)
       Virtual   (A) (A) (A) (A) (A) (A) (A) (A) (A) (A) (A) (A)
                 (A) (A) (A) (A) (A) (A) (A) (A) (A) (A) (A) (A)
                 (A) (A) (A) (A) (A) (A) (A) (A) (A) (A) (A) (A)
                 (A) (A) (A) (A) (A) (A) (A) (A) (A) (A) (A) (A)
                 (A) (A) (A) (A) (A) (A) (A) (A) (A) (A) (A) (A)
                 (A) (A) (A) (A) (A) (A) (A) (A) (A) (A) (A) (A)
                 (A) (A) (A) (A) (A) (A) (A) (A) (A) (A) (A) (A)
                 (A) (A) (A) (A) (A) (A) (A) (A) (A) (A) (A) (A)
                 (A) (A) (A) (A) (A) (A) (A) (A) (A) (A) (A) (A)
                 (A) (A) (A) (A) (A) (A) (A) (A) (A) (A) (A) (A)
                 (A) (A) (A) (A) (A) (A) (A) (A) (A) (A) (A) (A)
                 (A) (A) (A) (A) (A) (A) (A) (A) (A) (A) (A) (A)
                 (A) (A) (A) (A) (A) (A) (A) (A) (A) (A) (A) (A)
                 (A) (A) (A) (A) (A) (A) (A) (A) (A) (A) (A) (A)
                 (A) (A) (A) (A) (A) (A) (A) (A) (A) (A) (A) (A)
                 (A) (A) (A) (A) (A) (A) (A) (A) (A) (A) (A) (A)
                 (A) (A) (A) (A) (A) (A) (A) (A) (A) (A) (A) (A)
                 (A) (A) (A) (A) (A) (A) (A) (A) (A) (A) (A) (A)
                 (A) (A) (A) (A) (A) (A) (A)
 The electronic state is 1-A.
 Alpha  occ. eigenvalues --  -66.21774 -19.21211 -19.18891 -10.26070 -10.21538
 Alpha  occ. eigenvalues --  -10.19846  -5.30576  -3.64242  -3.63875  -3.63713
 Alpha  occ. eigenvalues --   -1.09582  -1.02728  -0.77723  -0.70011  -0.63810
 Alpha  occ. eigenvalues --   -0.60571  -0.51450  -0.46963  -0.46536  -0.46008
 Alpha  occ. eigenvalues --   -0.43425  -0.42263  -0.40754  -0.39466  -0.36494
 Alpha  occ. eigenvalues --   -0.35719  -0.31266  -0.29797  -0.28670
 Alpha virt. eigenvalues --    0.01948   0.06126   0.06526   0.08412   0.09118
 Alpha virt. eigenvalues --    0.10495   0.11329   0.11999   0.12531   0.13527
 Alpha virt. eigenvalues --    0.15172   0.15513   0.16883   0.17520   0.19714
 Alpha virt. eigenvalues --    0.21576   0.22502   0.24078   0.24865   0.25239
 Alpha virt. eigenvalues --    0.26590   0.28974   0.29188   0.30793   0.32989
 Alpha virt. eigenvalues --    0.34096   0.36509   0.39050   0.41031   0.41342
 Alpha virt. eigenvalues --    0.42273   0.42865   0.44509   0.45118   0.46336
 Alpha virt. eigenvalues --    0.46821   0.47703   0.48105   0.50495   0.51247
 Alpha virt. eigenvalues --    0.52894   0.53730   0.55591   0.57421   0.59542
 Alpha virt. eigenvalues --    0.60729   0.63688   0.66013   0.67444   0.68231
 Alpha virt. eigenvalues --    0.74391   0.75891   0.76627   0.79290   0.83175
 Alpha virt. eigenvalues --    0.84340   0.84614   0.86396   0.89097   0.92244
 Alpha virt. eigenvalues --    0.94053   0.95968   0.98576   1.00575   1.01713
 Alpha virt. eigenvalues --    1.05087   1.07644   1.09996   1.11324   1.11418
 Alpha virt. eigenvalues --    1.12624   1.15957   1.20114   1.21361   1.23962
 Alpha virt. eigenvalues --    1.26293   1.32141   1.35121   1.38407   1.42384
 Alpha virt. eigenvalues --    1.43486   1.47733   1.50849   1.51270   1.53257
 Alpha virt. eigenvalues --    1.54835   1.55217   1.56045   1.56962   1.58826
 Alpha virt. eigenvalues --    1.59769   1.63579   1.64846   1.66233   1.67278
 Alpha virt. eigenvalues --    1.69257   1.74267   1.77376   1.80055   1.81189
 Alpha virt. eigenvalues --    1.82541   1.85319   1.88268   1.90573   1.93950
 Alpha virt. eigenvalues --    1.95932   1.96980   2.00817   2.04204   2.07117
 Alpha virt. eigenvalues --    2.07253   2.09562   2.14128   2.14943   2.17454
 Alpha virt. eigenvalues --    2.19255   2.21837   2.25502   2.30518   2.31987
 Alpha virt. eigenvalues --    2.33715   2.34620   2.35442   2.36529   2.37719
 Alpha virt. eigenvalues --    2.39836   2.41895   2.47603   2.48674   2.51654
 Alpha virt. eigenvalues --    2.52572   2.54042   2.55680   2.56698   2.58901
 Alpha virt. eigenvalues --    2.60820   2.61941   2.66604   2.68990   2.72482
 Alpha virt. eigenvalues --    2.74504   2.79972   2.81151   2.86070   2.88670
 Alpha virt. eigenvalues --    2.91713   2.95087   2.98685   3.00456   3.05862
 Alpha virt. eigenvalues --    3.09632   3.11492   3.11856   3.15634   3.16772
 Alpha virt. eigenvalues --    3.22666   3.22937   3.24469   3.30371   3.31208
 Alpha virt. eigenvalues --    3.33110   3.33654   3.38699   3.41130   3.45129
 Alpha virt. eigenvalues --    3.45892   3.46967   3.53608   3.54159   3.58839
 Alpha virt. eigenvalues --    3.60049   3.62921   3.66176   3.73130   3.77438
 Alpha virt. eigenvalues --    3.82142   3.92978   3.95995   4.03058   4.14177
 Alpha virt. eigenvalues --    4.20335   4.24643   4.26047   4.34683   4.37528
 Alpha virt. eigenvalues --    4.42035   4.47773   4.54091   4.57918   4.79308
 Alpha virt. eigenvalues --    5.14401   5.15600   5.20503   5.24613   5.31383
 Alpha virt. eigenvalues --    5.38305   5.41953   5.46448   5.48464   5.64287
 Alpha virt. eigenvalues --    5.81290   5.87622   6.04499   6.28156   6.45147
 Alpha virt. eigenvalues --    6.46225   6.58656   6.61202   6.64570   6.73268
 Alpha virt. eigenvalues --    6.79507   6.83156   6.88392   7.02180   7.13537
 Alpha virt. eigenvalues --    7.18805   7.22523  12.16050  22.37394  22.41461
 Alpha virt. eigenvalues --   22.46624  43.78934  43.96659
          Condensed to atoms (all electrons):
              1          2          3          4          5          6
     1  H    0.548738   0.409698  -0.032670  -0.025056  -0.023860  -0.006799
     2  C    0.409698   4.946675   0.303138   0.401754   0.414380  -0.033218
     3  C   -0.032670   0.303138   5.081653  -0.046520  -0.041826   0.384787
     4  H   -0.025056   0.401754  -0.046520   0.598927  -0.029882  -0.004890
     5  H   -0.023860   0.414380  -0.041826  -0.029882   0.531715   0.008008
     6  H   -0.006799  -0.033218   0.384787  -0.004890   0.008008   0.584988
     7  Si   0.006993  -0.016625   0.431373  -0.008920  -0.006169  -0.025347
     8  H   -0.007335  -0.025496   0.367515   0.009030  -0.004109  -0.024921
     9  O   -0.000055  -0.001046  -0.044276   0.003236  -0.000482  -0.001727
    10  O   -0.000007  -0.004475  -0.032227   0.000473   0.007312   0.001311
    11  H   -0.000109   0.002355  -0.038994   0.000204   0.000437   0.001795
    12  H   -0.000183   0.002216  -0.003729   0.003308   0.000118   0.000111
    13  C    0.000008  -0.000008   0.002651   0.000067  -0.000157  -0.000133
    14  H   -0.000004   0.000223  -0.000467   0.000000  -0.000167  -0.000001
    15  H    0.000000  -0.000021  -0.000201  -0.000001   0.000084   0.000007
    16  H    0.000002  -0.000175   0.000948  -0.000009   0.000036   0.000015
              7          8          9         10         11         12
     1  H    0.006993  -0.007335  -0.000055  -0.000007  -0.000109  -0.000183
     2  C   -0.016625  -0.025496  -0.001046  -0.004475   0.002355   0.002216
     3  C    0.431373   0.367515  -0.044276  -0.032227  -0.038994  -0.003729
     4  H   -0.008920   0.009030   0.003236   0.000473   0.000204   0.003308
     5  H   -0.006169  -0.004109  -0.000482   0.007312   0.000437   0.000118
     6  H   -0.025347  -0.024921  -0.001727   0.001311   0.001795   0.000111
     7  Si  11.877718  -0.015789   0.542933   0.462742   0.388378  -0.042835
     8  H   -0.015789   0.581542   0.002505   0.001813   0.001033   0.000139
     9  O    0.542933   0.002505   7.616591  -0.043830  -0.019466   0.316987
    10  O    0.462742   0.001813  -0.043830   7.862329  -0.028219  -0.002892
    11  H    0.388378   0.001033  -0.019466  -0.028219   0.765477   0.006624
    12  H   -0.042835   0.000139   0.316987  -0.002892   0.006624   0.386938
    13  C   -0.046626   0.000035  -0.006115   0.263370   0.002322   0.001274
    14  H    0.006787   0.000004   0.000006  -0.041622  -0.000251   0.000027
    15  H   -0.017431  -0.000007  -0.000732  -0.043147   0.011239  -0.000144
    16  H   -0.006795  -0.000021   0.006318  -0.046407  -0.002229   0.000824
             13         14         15         16
     1  H    0.000008  -0.000004   0.000000   0.000002
     2  C   -0.000008   0.000223  -0.000021  -0.000175
     3  C    0.002651  -0.000467  -0.000201   0.000948
     4  H    0.000067   0.000000  -0.000001  -0.000009
     5  H   -0.000157  -0.000167   0.000084   0.000036
     6  H   -0.000133  -0.000001   0.000007   0.000015
     7  Si  -0.046626   0.006787  -0.017431  -0.006795
     8  H    0.000035   0.000004  -0.000007  -0.000021
     9  O   -0.006115   0.000006  -0.000732   0.006318
    10  O    0.263370  -0.041622  -0.043147  -0.046407
    11  H    0.002322  -0.000251   0.011239  -0.002229
    12  H    0.001274   0.000027  -0.000144   0.000824
    13  C    4.759727   0.405507   0.417996   0.411152
    14  H    0.405507   0.567802  -0.030310  -0.035351
    15  H    0.417996  -0.030310   0.595447  -0.050321
    16  H    0.411152  -0.035351  -0.050321   0.612191
 Mulliken atomic charges:
              1
     1  H    0.130639
     2  C   -0.399373
     3  C   -0.331155
     4  H    0.098280
     5  H    0.144561
     6  H    0.116014
     7  Si   0.469613
     8  H    0.114062
     9  O   -0.370847
    10  O   -0.356524
    11  H   -0.090594
    12  H    0.331216
    13  C   -0.211069
    14  H    0.127817
    15  H    0.117539
    16  H    0.109822
 Sum of Mulliken atomic charges =   0.00000
 Mulliken charges with hydrogens summed into heavy atoms:
              1
     2  C   -0.025893
     3  C   -0.101080
     7  Si   0.379019
     9  O   -0.039631
    10  O   -0.356524
    13  C    0.144109
 Sum of Mulliken charges with hydrogens summed into heavy atoms =   0.00000
 Electronic spatial extent (au):  <R**2>=            841.1920
 Charge=              0.0000 electrons
 Dipole moment (field-independent basis, Debye):
    X=             -0.2595    Y=              0.0048    Z=             -1.5322  Tot=              1.5540
 Quadrupole moment (field-independent basis, Debye-Ang):
   XX=            -41.7972   YY=            -48.0658   ZZ=            -42.8492
   XY=             -1.4695   XZ=             -0.1497   YZ=             -1.8026
 Traceless Quadrupole moment (field-independent basis, Debye-Ang):
   XX=              2.4402   YY=             -3.8284   ZZ=              1.3882
   XY=             -1.4695   XZ=             -0.1497   YZ=             -1.8026
 Octapole moment (field-independent basis, Debye-Ang**2):
  XXX=             14.6157  YYY=             -2.7427  ZZZ=            -12.7329  XYY=             -0.0796
  XXY=             -1.2773  XXZ=             -1.2801  XZZ=              0.4555  YZZ=              3.6982
  YYZ=             -2.7418  XYZ=              1.4082
 Hexadecapole moment (field-independent basis, Debye-Ang**3):
 XXXX=           -713.8474 YYYY=           -260.8960 ZZZZ=           -152.6084 XXXY=            -12.1107
 XXXZ=             -4.5397 YYYX=            -11.4172 YYYZ=             -5.9855 ZZZX=             -1.8830
 ZZZY=            -21.0127 XXYY=           -158.9962 XXZZ=           -151.1442 YYZZ=            -66.2537
 XXYZ=             -2.8185 YYXZ=             -2.0798 ZZXY=             -4.6509
 N-N= 3.391252428522D+02 E-N=-2.002908861379D+03  KE= 5.590106393583D+02
 1\1\GINC-TARSUS2\SP\RPBE1PBE\def2TZVP\C3H10O2Si1\RENATO\10-Aug-2018\0\
 \#SP PBE1PBE/Def2TZVP geom=connectivity\\Structure: 53\\0,1\H,0,0.,0.,
 0.\C,0,1.093,0.,0.\C,0,1.655,1.421,0.\H,0,1.41,-0.56,-0.885\H,0,1.424,
 -0.557,0.88\H,0,1.308,1.969,-0.883\Si,0,3.513,1.515,0.035\H,0,1.282,1.
 975,0.868\O,0,4.115,0.884,-1.07\O,0,3.968,0.824,1.454\H,0,4.029,2.906,
 -0.04\H,0,3.876,-0.027,-1.244\C,0,5.301,0.766,1.905\H,0,5.308,0.322,2.
 902\H,0,5.747,1.766,1.967\H,0,5.921,0.153,1.244\\Version=EM64L-G09RevC
 .01\State=1-A\HF=-560.0080568\RMSD=3.249e-09\Dipole=0.0276484,-0.57395
 89,-0.2088097\Quadrupole=0.6660498,-0.289887,-0.3761628,-1.2431953,1.8
 419527,1.9895713\PG=C01 [X(C3H10O2Si1)]\\@


 FRICTION IS A DRAG,
 AND ENTROPY AIN'T WHAT IT USED TO BE.
 Job cpu time:  0 days  0 hours 14 minutes  4.9 seconds.
 File lengths (MBytes):  RWF=     40 Int=      0 D2E=      0 Chk=      3 Scr=      1
 Normal termination of Gaussian 09 at Fri Aug 10 02:59:33 2018.
