 Entering Gaussian System, Link 0=g09
 Initial command:
 /usr/local/gaussian09/g09/l1.exe /scratch/renato/Gau-10447.inp -scrdir=/scratch/renato/
 Entering Link 1 = /usr/local/gaussian09/g09/l1.exe PID=     10449.
  
 Copyright (c) 1988,1990,1992,1993,1995,1998,2003,2009,2011,
            Gaussian, Inc.  All Rights Reserved.
  
 This is part of the Gaussian(R) 09 program.  It is based on
 the Gaussian(R) 03 system (copyright 2003, Gaussian, Inc.),
 the Gaussian(R) 98 system (copyright 1998, Gaussian, Inc.),
 the Gaussian(R) 94 system (copyright 1995, Gaussian, Inc.),
 the Gaussian 92(TM) system (copyright 1992, Gaussian, Inc.),
 the Gaussian 90(TM) system (copyright 1990, Gaussian, Inc.),
 the Gaussian 88(TM) system (copyright 1988, Gaussian, Inc.),
 the Gaussian 86(TM) system (copyright 1986, Carnegie Mellon
 University), and the Gaussian 82(TM) system (copyright 1983,
 Carnegie Mellon University). Gaussian is a federally registered
 trademark of Gaussian, Inc.
  
 This software contains proprietary and confidential information,
 including trade secrets, belonging to Gaussian, Inc.
  
 This software is provided under written license and may be
 used, copied, transmitted, or stored only in accord with that
 written license.
  
 The following legend is applicable only to US Government
 contracts under FAR:
  
                    RESTRICTED RIGHTS LEGEND
  
 Use, reproduction and disclosure by the US Government is
 subject to restrictions as set forth in subparagraphs (a)
 and (c) of the Commercial Computer Software - Restricted
 Rights clause in FAR 52.227-19.
  
 Gaussian, Inc.
 340 Quinnipiac St., Bldg. 40, Wallingford CT 06492
  
  
 ---------------------------------------------------------------
 Warning -- This program may not be used in any manner that
 competes with the business of Gaussian, Inc. or will provide
 assistance to any competitor of Gaussian, Inc.  The licensee
 of this program is prohibited from giving any competitor of
 Gaussian, Inc. access to this program.  By using this program,
 the user acknowledges that Gaussian, Inc. is engaged in the
 business of creating and licensing software in the field of
 computational chemistry and represents and warrants to the
 licensee that it is not a competitor of Gaussian, Inc. and that
 it will not use this program in any manner prohibited above.
 ---------------------------------------------------------------
  

 Cite this work as:
 Gaussian 09, Revision C.01,
 M. J. Frisch, G. W. Trucks, H. B. Schlegel, G. E. Scuseria, 
 M. A. Robb, J. R. Cheeseman, G. Scalmani, V. Barone, B. Mennucci, 
 G. A. Petersson, H. Nakatsuji, M. Caricato, X. Li, H. P. Hratchian, 
 A. F. Izmaylov, J. Bloino, G. Zheng, J. L. Sonnenberg, M. Hada, 
 M. Ehara, K. Toyota, R. Fukuda, J. Hasegawa, M. Ishida, T. Nakajima, 
 Y. Honda, O. Kitao, H. Nakai, T. Vreven, J. A. Montgomery, Jr., 
 J. E. Peralta, F. Ogliaro, M. Bearpark, J. J. Heyd, E. Brothers, 
 K. N. Kudin, V. N. Staroverov, T. Keith, R. Kobayashi, J. Normand, 
 K. Raghavachari, A. Rendell, J. C. Burant, S. S. Iyengar, J. Tomasi, 
 M. Cossi, N. Rega, J. M. Millam, M. Klene, J. E. Knox, J. B. Cross, 
 V. Bakken, C. Adamo, J. Jaramillo, R. Gomperts, R. E. Stratmann, 
 O. Yazyev, A. J. Austin, R. Cammi, C. Pomelli, J. W. Ochterski, 
 R. L. Martin, K. Morokuma, V. G. Zakrzewski, G. A. Voth, 
 P. Salvador, J. J. Dannenberg, S. Dapprich, A. D. Daniels, 
 O. Farkas, J. B. Foresman, J. V. Ortiz, J. Cioslowski, 
 and D. J. Fox, Gaussian, Inc., Wallingford CT, 2010.
 
 ******************************************
 Gaussian 09:  EM64L-G09RevC.01 23-Sep-2011
                10-Aug-2018 
 ******************************************
 %nproc=2
 Will use up to    2 processors via shared memory.
 %mem=256MB
 %RWF=bm3.rwf
 %chk=bm355
 %NoSave
 --------------------------------------
 #SP PBE1PBE/Def2TZVP geom=connectivity
 --------------------------------------
 1/38=1,57=2/1;
 2/12=2,17=6,18=5,40=1/2;
 3/5=44,7=101,11=2,16=1,25=1,30=1,74=-13/1,2,3;
 4//1;
 5/5=2,38=5/2;
 6/7=2,8=2,9=2,10=2,28=1/1;
 99/5=1,9=1/99;
 -------------
 Structure: 55
 -------------
 Charge =  0 Multiplicity = 1
 Symbolic Z-Matrix:
 H                     0.        0.        0. 
 C                     1.093     0.        0. 
 C                     1.655     1.421     0. 
 H                     1.41     -0.56     -0.885 
 H                     1.424    -0.557     0.88 
 H                     1.308     1.969    -0.883 
 Si                    3.513     1.515     0.035 
 H                     1.282     1.975     0.868 
 O                     4.117     0.883    -1.073 
 O                     3.968     0.824     1.454 
 H                     4.029     2.906    -0.04 
 H                     3.877    -0.029    -1.247 
 C                     5.301     0.766     1.905 
 H                     5.308     0.322     2.902 
 H                     5.747     1.766     1.967 
 H                     5.921     0.153     1.244 
 
                          Input orientation:                          
 ---------------------------------------------------------------------
 Center     Atomic      Atomic             Coordinates (Angstroms)
 Number     Number       Type             X           Y           Z
 ---------------------------------------------------------------------
      1          1           0        0.000000    0.000000    0.000000
      2          6           0        1.093000    0.000000    0.000000
      3          6           0        1.655000    1.421000    0.000000
      4          1           0        1.410000   -0.560000   -0.885000
      5          1           0        1.424000   -0.557000    0.880000
      6          1           0        1.308000    1.969000   -0.883000
      7         14           0        3.513000    1.515000    0.035000
      8          1           0        1.282000    1.975000    0.868000
      9          8           0        4.117000    0.883000   -1.073000
     10          8           0        3.968000    0.824000    1.454000
     11          1           0        4.029000    2.906000   -0.040000
     12          1           0        3.877000   -0.029000   -1.247000
     13          6           0        5.301000    0.766000    1.905000
     14          1           0        5.308000    0.322000    2.902000
     15          1           0        5.747000    1.766000    1.967000
     16          1           0        5.921000    0.153000    1.244000
 ---------------------------------------------------------------------
                    Distance matrix (angstroms):
                    1          2          3          4          5
     1  H    0.000000
     2  C    1.093000   0.000000
     3  C    2.181345   1.528098   0.000000
     4  H    1.756395   1.094218   2.183486   0.000000
     5  H    1.764207   1.092799   2.177210   1.765058   0.000000
     6  H    2.523393   2.168611   1.095629   2.531057   3.082580
     7  Si   3.825914   2.855320   1.860706   3.094291   3.061230
     8  H    2.509497   2.165588   1.095203   3.084740   2.536007
     9  O    4.345194   3.328002   2.739018   3.073344   3.624922
    10  O    4.305591   3.325465   2.796515   3.732257   2.951029
    11  H    4.967824   4.131166   2.800482   4.425646   4.429988
    12  H    4.072712   3.050657   2.931688   2.549332   3.289395
    13  C    5.684750   4.682205   4.165497   4.968124   4.222805
    14  H    6.058065   5.127525   4.793101   5.505788   4.466160
    15  H    6.325809   5.352342   4.553304   5.688036   5.026552
    16  H    6.052205   4.988039   4.621051   5.038862   4.567232
                    6          7          8          9         10
     6  H    0.000000
     7  Si   2.431227   0.000000
     8  H    1.751203   2.425459   0.000000
     9  O    3.017611   1.411348   3.605159   0.000000
    10  O    3.721316   1.642579   2.980401   2.532076   0.000000
    11  H    2.998743   1.485517   3.039282   2.273183   2.563295
    12  H    3.274792   2.039597   3.901700   0.958968   2.833953
    13  C    5.016393   2.693482   4.323125   3.206872   1.408423
    14  H    5.747942   3.586776   4.803982   4.187341   2.035757
    15  H    5.279056   2.964183   4.603011   3.560644   2.077348
    16  H    5.394604   3.019137   4.998138   3.025856   2.075705
                   11         12         13         14         15
    11  H    0.000000
    12  H    3.177134   0.000000
    13  C    3.159210   3.548930   0.000000
    14  H    4.119255   4.402859   1.091418   0.000000
    15  H    2.877355   4.129010   1.096704   1.775410   0.000000
    16  H    3.578733   3.227405   1.094116   1.775752   1.776168
                   16
    16  H    0.000000
 Stoichiometry    C3H10O2Si
 Framework group  C1[X(C3H10O2Si)]
 Deg. of freedom    42
 Full point group                 C1      NOp   1
 Largest Abelian subgroup         C1      NOp   1
 Largest concise Abelian subgroup C1      NOp   1
                         Standard orientation:                         
 ---------------------------------------------------------------------
 Center     Atomic      Atomic             Coordinates (Angstroms)
 Number     Number       Type             X           Y           Z
 ---------------------------------------------------------------------
      1          1           0       -3.226363   -1.236738   -0.344199
      2          6           0       -2.232718   -0.836079   -0.560513
      3          6           0       -1.618912   -0.162842    0.666304
      4          1           0       -2.348146   -0.133741   -1.391603
      5          1           0       -1.611128   -1.663799   -0.910818
      6          1           0       -2.256931    0.658665    1.010484
      7         14           0        0.091358    0.518686    0.396634
      8          1           0       -1.561803   -0.872885    1.498197
      9          8           0        0.140145    1.496644   -0.619791
     10          8           0        1.037094   -0.776761    0.042419
     11          1           0        0.630406    1.230473    1.583879
     12          1           0       -0.215457    1.260244   -1.478442
     13          6           0        2.429741   -0.699727   -0.153169
     14          1           0        2.812964   -1.710892   -0.301082
     15          1           0        2.933043   -0.261399    0.717070
     16          1           0        2.677826   -0.098704   -1.033121
 ---------------------------------------------------------------------
 Rotational constants (GHZ):      4.5217345      1.9223873      1.6317680
 Standard basis: def2TZVP (5D, 7F)
 There are   252 symmetry adapted basis functions of A   symmetry.
 Integral buffers will be    131072 words long.
 Raffenetti 2 integral format.
 Two-electron integral symmetry is turned on.
   252 basis functions,   404 primitive gaussians,   282 cartesian basis functions
    29 alpha electrons       29 beta electrons
       nuclear repulsion energy       338.9533317045 Hartrees.
 NAtoms=   16 NActive=   16 NUniq=   16 SFac= 1.00D+00 NAtFMM=   60 NAOKFM=F Big=F
 One-electron integrals computed using PRISM.
   1 Symmetry operations used in ECPInt.
 ECPInt:  NShTT=    5886 NPrTT=   17754 LenC2=    5784 LenP2D=   13975.
 LDataN:  DoStor=T MaxTD1= 6 Len=  172
 NBasis=   252 RedAO= T  NBF=   252
 NBsUse=   252 1.00D-06 NBFU=   252
 Harris functional with IExCor= 1009 diagonalized for initial guess.
 ExpMin= 7.01D-02 ExpMax= 4.48D+04 ExpMxC= 1.53D+03 IAcc=2 IRadAn=         4 AccDes= 0.00D+00
 HarFok:  IExCor= 1009 AccDes= 0.00D+00 IRadAn=         4 IDoV= 1
 ScaDFX=  1.000000  1.000000  1.000000  1.000000
 FoFCou: FMM=F IPFlag=           0 FMFlag=      100000 FMFlg1=           0
         NFxFlg=           0 DoJE=T BraDBF=F KetDBF=T FulRan=T
         Omega=  0.000000  0.000000  1.000000  0.000000  0.000000 ICntrl=     500 IOpCl=  0
         NMat0=    1 NMatS0=    1 NMatT0=    0 NMatD0=    1 NMtDS0=    0 NMtDT0=    0
         I1Cent=           4 NGrid=           0.
 Petite list used in FoFCou.
 Initial guess orbital symmetries:
       Occupied  (A) (A) (A) (A) (A) (A) (A) (A) (A) (A) (A) (A)
                 (A) (A) (A) (A) (A) (A) (A) (A) (A) (A) (A) (A)
                 (A) (A) (A) (A) (A)
       Virtual   (A) (A) (A) (A) (A) (A) (A) (A) (A) (A) (A) (A)
                 (A) (A) (A) (A) (A) (A) (A) (A) (A) (A) (A) (A)
                 (A) (A) (A) (A) (A) (A) (A) (A) (A) (A) (A) (A)
                 (A) (A) (A) (A) (A) (A) (A) (A) (A) (A) (A) (A)
                 (A) (A) (A) (A) (A) (A) (A) (A) (A) (A) (A) (A)
                 (A) (A) (A) (A) (A) (A) (A) (A) (A) (A) (A) (A)
                 (A) (A) (A) (A) (A) (A) (A) (A) (A) (A) (A) (A)
                 (A) (A) (A) (A) (A) (A) (A) (A) (A) (A) (A) (A)
                 (A) (A) (A) (A) (A) (A) (A) (A) (A) (A) (A) (A)
                 (A) (A) (A) (A) (A) (A) (A) (A) (A) (A) (A) (A)
                 (A) (A) (A) (A) (A) (A) (A) (A) (A) (A) (A) (A)
                 (A) (A) (A) (A) (A) (A) (A) (A) (A) (A) (A) (A)
                 (A) (A) (A) (A) (A) (A) (A) (A) (A) (A) (A) (A)
                 (A) (A) (A) (A) (A) (A) (A) (A) (A) (A) (A) (A)
                 (A) (A) (A) (A) (A) (A) (A) (A) (A) (A) (A) (A)
                 (A) (A) (A) (A) (A) (A) (A) (A) (A) (A) (A) (A)
                 (A) (A) (A) (A) (A) (A) (A) (A) (A) (A) (A) (A)
                 (A) (A) (A) (A) (A) (A) (A) (A) (A) (A) (A) (A)
                 (A) (A) (A) (A) (A) (A) (A)
 The electronic state of the initial guess is 1-A.
 Requested convergence on RMS density matrix=1.00D-08 within 128 cycles.
 Requested convergence on MAX density matrix=1.00D-06.
 Requested convergence on             energy=1.00D-06.
 No special actions if energy rises.
 Integral accuracy reduced to 1.0D-05 until final iterations.
 Initial convergence to 1.0D-05 achieved.  Increase integral accuracy.
 SCF Done:  E(RPBE1PBE) =  -560.010031946     A.U. after   13 cycles
             Convg  =    0.3280D-08             -V/T =  2.0018

 **********************************************************************

            Population analysis using the SCF density.

 **********************************************************************

 Orbital symmetries:
       Occupied  (A) (A) (A) (A) (A) (A) (A) (A) (A) (A) (A) (A)
                 (A) (A) (A) (A) (A) (A) (A) (A) (A) (A) (A) (A)
                 (A) (A) (A) (A) (A)
       Virtual   (A) (A) (A) (A) (A) (A) (A) (A) (A) (A) (A) (A)
                 (A) (A) (A) (A) (A) (A) (A) (A) (A) (A) (A) (A)
                 (A) (A) (A) (A) (A) (A) (A) (A) (A) (A) (A) (A)
                 (A) (A) (A) (A) (A) (A) (A) (A) (A) (A) (A) (A)
                 (A) (A) (A) (A) (A) (A) (A) (A) (A) (A) (A) (A)
                 (A) (A) (A) (A) (A) (A) (A) (A) (A) (A) (A) (A)
                 (A) (A) (A) (A) (A) (A) (A) (A) (A) (A) (A) (A)
                 (A) (A) (A) (A) (A) (A) (A) (A) (A) (A) (A) (A)
                 (A) (A) (A) (A) (A) (A) (A) (A) (A) (A) (A) (A)
                 (A) (A) (A) (A) (A) (A) (A) (A) (A) (A) (A) (A)
                 (A) (A) (A) (A) (A) (A) (A) (A) (A) (A) (A) (A)
                 (A) (A) (A) (A) (A) (A) (A) (A) (A) (A) (A) (A)
                 (A) (A) (A) (A) (A) (A) (A) (A) (A) (A) (A) (A)
                 (A) (A) (A) (A) (A) (A) (A) (A) (A) (A) (A) (A)
                 (A) (A) (A) (A) (A) (A) (A) (A) (A) (A) (A) (A)
                 (A) (A) (A) (A) (A) (A) (A) (A) (A) (A) (A) (A)
                 (A) (A) (A) (A) (A) (A) (A) (A) (A) (A) (A) (A)
                 (A) (A) (A) (A) (A) (A) (A) (A) (A) (A) (A) (A)
                 (A) (A) (A) (A) (A) (A) (A)
 The electronic state is 1-A.
 Alpha  occ. eigenvalues --  -66.21838 -19.21215 -19.18908 -10.26075 -10.21543
 Alpha  occ. eigenvalues --  -10.19863  -5.30612  -3.64272  -3.63915  -3.63753
 Alpha  occ. eigenvalues --   -1.09459  -1.02738  -0.77731  -0.70017  -0.63803
 Alpha  occ. eigenvalues --   -0.60485  -0.51447  -0.46941  -0.46530  -0.46013
 Alpha  occ. eigenvalues --   -0.43421  -0.42222  -0.40722  -0.39452  -0.36505
 Alpha  occ. eigenvalues --   -0.35726  -0.31277  -0.29808  -0.28687
 Alpha virt. eigenvalues --    0.01940   0.06123   0.06515   0.08407   0.09114
 Alpha virt. eigenvalues --    0.10490   0.11322   0.11993   0.12528   0.13526
 Alpha virt. eigenvalues --    0.15163   0.15505   0.16871   0.17503   0.19709
 Alpha virt. eigenvalues --    0.21570   0.22495   0.24072   0.24862   0.25233
 Alpha virt. eigenvalues --    0.26589   0.28980   0.29172   0.30782   0.32958
 Alpha virt. eigenvalues --    0.34076   0.36497   0.39045   0.41018   0.41325
 Alpha virt. eigenvalues --    0.42267   0.42858   0.44502   0.45115   0.46328
 Alpha virt. eigenvalues --    0.46800   0.47699   0.48098   0.50487   0.51230
 Alpha virt. eigenvalues --    0.52884   0.53721   0.55563   0.57407   0.59540
 Alpha virt. eigenvalues --    0.60727   0.63672   0.66011   0.67452   0.68197
 Alpha virt. eigenvalues --    0.74388   0.75876   0.76607   0.79272   0.83151
 Alpha virt. eigenvalues --    0.84328   0.84599   0.86398   0.89077   0.92237
 Alpha virt. eigenvalues --    0.94031   0.95962   0.98551   1.00559   1.01698
 Alpha virt. eigenvalues --    1.05078   1.07637   1.09985   1.11330   1.11412
 Alpha virt. eigenvalues --    1.12613   1.15933   1.20034   1.21299   1.23838
 Alpha virt. eigenvalues --    1.26264   1.32113   1.35043   1.38374   1.42370
 Alpha virt. eigenvalues --    1.43458   1.47704   1.50796   1.51241   1.53245
 Alpha virt. eigenvalues --    1.54770   1.55210   1.56003   1.56938   1.58774
 Alpha virt. eigenvalues --    1.59759   1.63564   1.64826   1.66209   1.67256
 Alpha virt. eigenvalues --    1.69224   1.74204   1.77346   1.80050   1.81188
 Alpha virt. eigenvalues --    1.82520   1.85263   1.88179   1.90565   1.93922
 Alpha virt. eigenvalues --    1.95915   1.96964   2.00809   2.04177   2.07088
 Alpha virt. eigenvalues --    2.07233   2.09535   2.14127   2.14866   2.17396
 Alpha virt. eigenvalues --    2.19159   2.21769   2.25502   2.30507   2.31909
 Alpha virt. eigenvalues --    2.33706   2.34594   2.35432   2.36512   2.37686
 Alpha virt. eigenvalues --    2.39751   2.41852   2.47555   2.48645   2.51622
 Alpha virt. eigenvalues --    2.52539   2.53960   2.55638   2.56687   2.58884
 Alpha virt. eigenvalues --    2.60791   2.61927   2.66577   2.68953   2.72429
 Alpha virt. eigenvalues --    2.74469   2.79895   2.81124   2.86048   2.88520
 Alpha virt. eigenvalues --    2.91640   2.95063   2.98598   3.00446   3.05808
 Alpha virt. eigenvalues --    3.09624   3.11430   3.11832   3.15569   3.16726
 Alpha virt. eigenvalues --    3.22636   3.22925   3.24434   3.30340   3.31174
 Alpha virt. eigenvalues --    3.33094   3.33636   3.38667   3.41115   3.45119
 Alpha virt. eigenvalues --    3.45885   3.46955   3.53592   3.54148   3.58813
 Alpha virt. eigenvalues --    3.60000   3.62909   3.66155   3.72835   3.77419
 Alpha virt. eigenvalues --    3.82120   3.92957   3.95977   4.03024   4.13570
 Alpha virt. eigenvalues --    4.20263   4.24631   4.26035   4.34675   4.37519
 Alpha virt. eigenvalues --    4.42026   4.47756   4.54080   4.57908   4.79298
 Alpha virt. eigenvalues --    5.14408   5.15640   5.20428   5.24545   5.31327
 Alpha virt. eigenvalues --    5.38217   5.41950   5.46339   5.48336   5.63549
 Alpha virt. eigenvalues --    5.81267   5.87609   6.04478   6.27653   6.45131
 Alpha virt. eigenvalues --    6.46165   6.58580   6.61155   6.64512   6.73178
 Alpha virt. eigenvalues --    6.79582   6.83117   6.88482   7.01936   7.13105
 Alpha virt. eigenvalues --    7.18727   7.22487  12.15866  22.37388  22.41453
 Alpha virt. eigenvalues --   22.46600  43.78656  43.96616
          Condensed to atoms (all electrons):
              1          2          3          4          5          6
     1  H    0.548757   0.409685  -0.032683  -0.025059  -0.023870  -0.006800
     2  C    0.409685   4.946535   0.303324   0.401740   0.414362  -0.033158
     3  C   -0.032683   0.303324   5.080998  -0.046491  -0.041791   0.384842
     4  H   -0.025059   0.401740  -0.046491   0.598767  -0.029854  -0.004894
     5  H   -0.023870   0.414362  -0.041791  -0.029854   0.531732   0.008004
     6  H   -0.006800  -0.033158   0.384842  -0.004894   0.008004   0.584873
     7  Si   0.007001  -0.016646   0.431123  -0.008864  -0.006208  -0.025418
     8  H   -0.007327  -0.025539   0.367562   0.009027  -0.004109  -0.024946
     9  O   -0.000055  -0.001087  -0.044250   0.003244  -0.000479  -0.001715
    10  O   -0.000006  -0.004484  -0.032208   0.000472   0.007318   0.001310
    11  H   -0.000109   0.002344  -0.038908   0.000204   0.000437   0.001789
    12  H   -0.000181   0.002183  -0.003716   0.003292   0.000118   0.000112
    13  C    0.000008  -0.000009   0.002640   0.000067  -0.000155  -0.000133
    14  H   -0.000004   0.000223  -0.000467   0.000000  -0.000167  -0.000001
    15  H    0.000000  -0.000021  -0.000198  -0.000001   0.000084   0.000007
    16  H    0.000002  -0.000174   0.000946  -0.000009   0.000036   0.000014
              7          8          9         10         11         12
     1  H    0.007001  -0.007327  -0.000055  -0.000006  -0.000109  -0.000181
     2  C   -0.016646  -0.025539  -0.001087  -0.004484   0.002344   0.002183
     3  C    0.431123   0.367562  -0.044250  -0.032208  -0.038908  -0.003716
     4  H   -0.008864   0.009027   0.003244   0.000472   0.000204   0.003292
     5  H   -0.006208  -0.004109  -0.000479   0.007318   0.000437   0.000118
     6  H   -0.025418  -0.024946  -0.001715   0.001310   0.001789   0.000112
     7  Si  11.877369  -0.015735   0.542347   0.462421   0.388443  -0.042405
     8  H   -0.015735   0.581454   0.002491   0.001813   0.001024   0.000135
     9  O    0.542347   0.002491   7.620669  -0.043766  -0.019445   0.316270
    10  O    0.462421   0.001813  -0.043766   7.862105  -0.028191  -0.002846
    11  H    0.388443   0.001024  -0.019445  -0.028191   0.764921   0.006592
    12  H   -0.042405   0.000135   0.316270  -0.002846   0.006592   0.387214
    13  C   -0.046690   0.000036  -0.006151   0.263357   0.002326   0.001265
    14  H    0.006801   0.000004   0.000008  -0.041611  -0.000250   0.000026
    15  H   -0.017438  -0.000007  -0.000726  -0.043142   0.011223  -0.000141
    16  H   -0.006756  -0.000021   0.006321  -0.046366  -0.002225   0.000813
             13         14         15         16
     1  H    0.000008  -0.000004   0.000000   0.000002
     2  C   -0.000009   0.000223  -0.000021  -0.000174
     3  C    0.002640  -0.000467  -0.000198   0.000946
     4  H    0.000067   0.000000  -0.000001  -0.000009
     5  H   -0.000155  -0.000167   0.000084   0.000036
     6  H   -0.000133  -0.000001   0.000007   0.000014
     7  Si  -0.046690   0.006801  -0.017438  -0.006756
     8  H    0.000036   0.000004  -0.000007  -0.000021
     9  O   -0.006151   0.000008  -0.000726   0.006321
    10  O    0.263357  -0.041611  -0.043142  -0.046366
    11  H    0.002326  -0.000250   0.011223  -0.002225
    12  H    0.001265   0.000026  -0.000141   0.000813
    13  C    4.759840   0.405460   0.418004   0.411173
    14  H    0.405460   0.567793  -0.030313  -0.035329
    15  H    0.418004  -0.030313   0.595404  -0.050274
    16  H    0.411173  -0.035329  -0.050274   0.611870
 Mulliken atomic charges:
              1
     1  H    0.130640
     2  C   -0.399276
     3  C   -0.330723
     4  H    0.098358
     5  H    0.144543
     6  H    0.116114
     7  Si   0.470654
     8  H    0.114138
     9  O   -0.373675
    10  O   -0.356175
    11  H   -0.090174
    12  H    0.331269
    13  C   -0.211037
    14  H    0.127826
    15  H    0.117539
    16  H    0.109979
 Sum of Mulliken atomic charges =   0.00000
 Mulliken charges with hydrogens summed into heavy atoms:
              1
     2  C   -0.025734
     3  C   -0.100471
     7  Si   0.380480
     9  O   -0.042406
    10  O   -0.356175
    13  C    0.144306
 Sum of Mulliken charges with hydrogens summed into heavy atoms =   0.00000
 Electronic spatial extent (au):  <R**2>=            841.5907
 Charge=              0.0000 electrons
 Dipole moment (field-independent basis, Debye):
    X=             -0.2619    Y=             -0.0036    Z=             -1.5227  Tot=              1.5450
 Quadrupole moment (field-independent basis, Debye-Ang):
   XX=            -41.7881   YY=            -48.0859   ZZ=            -42.8500
   XY=             -1.4739   XZ=             -0.1488   YZ=             -1.8004
 Traceless Quadrupole moment (field-independent basis, Debye-Ang):
   XX=              2.4532   YY=             -3.8446   ZZ=              1.3914
   XY=             -1.4739   XZ=             -0.1488   YZ=             -1.8004
 Octapole moment (field-independent basis, Debye-Ang**2):
  XXX=             14.6105  YYY=             -2.8013  ZZZ=            -12.7094  XYY=             -0.0921
  XXY=             -1.2906  XXZ=             -1.2769  XZZ=              0.4524  YZZ=              3.7194
  YYZ=             -2.7400  XYZ=              1.4185
 Hexadecapole moment (field-independent basis, Debye-Ang**3):
 XXXX=           -713.7215 YYYY=           -261.3535 ZZZZ=           -152.8252 XXXY=            -12.1109
 XXXZ=             -4.5728 YYYX=            -11.4200 YYYZ=             -5.9571 ZZZX=             -1.8934
 ZZZY=            -21.0118 XXYY=           -159.0422 XXZZ=           -151.1483 YYZZ=            -66.2515
 XXYZ=             -2.7876 YYXZ=             -2.0671 ZZXY=             -4.6595
 N-N= 3.389533317045D+02 E-N=-2.002551118628D+03  KE= 5.589912161037D+02
 1\1\GINC-TARSUS2\SP\RPBE1PBE\def2TZVP\C3H10O2Si1\RENATO\10-Aug-2018\0\
 \#SP PBE1PBE/Def2TZVP geom=connectivity\\Structure: 55\\0,1\H,0,0.,0.,
 0.\C,0,1.093,0.,0.\C,0,1.655,1.421,0.\H,0,1.41,-0.56,-0.885\H,0,1.424,
 -0.557,0.88\H,0,1.308,1.969,-0.883\Si,0,3.513,1.515,0.035\H,0,1.282,1.
 975,0.868\O,0,4.117,0.883,-1.073\O,0,3.968,0.824,1.454\H,0,4.029,2.906
 ,-0.04\H,0,3.877,-0.029,-1.247\C,0,5.301,0.766,1.905\H,0,5.308,0.322,2
 .902\H,0,5.747,1.766,1.967\H,0,5.921,0.153,1.244\\Version=EM64L-G09Rev
 C.01\State=1-A\HF=-560.0100319\RMSD=3.280e-09\Dipole=0.0243699,-0.5720
 275,-0.2041953\Quadrupole=0.6675169,-0.2784079,-0.389109,-1.241926,1.8
 560221,1.9909377\PG=C01 [X(C3H10O2Si1)]\\@


 "PERFECTION IS NOT AN ACCIDENT"
         --  EAGLE ELECTRIC MANUFACTURING CO.,INC. NY
 Job cpu time:  0 days  0 hours 14 minutes 24.4 seconds.
 File lengths (MBytes):  RWF=     40 Int=      0 D2E=      0 Chk=      3 Scr=      1
 Normal termination of Gaussian 09 at Fri Aug 10 03:13:56 2018.
