 Entering Gaussian System, Link 0=g09
 Initial command:
 /usr/local/gaussian09/g09/l1.exe /scratch/renato/Gau-12647.inp -scrdir=/scratch/renato/
 Entering Link 1 = /usr/local/gaussian09/g09/l1.exe PID=     12649.
  
 Copyright (c) 1988,1990,1992,1993,1995,1998,2003,2009,2011,
            Gaussian, Inc.  All Rights Reserved.
  
 This is part of the Gaussian(R) 09 program.  It is based on
 the Gaussian(R) 03 system (copyright 2003, Gaussian, Inc.),
 the Gaussian(R) 98 system (copyright 1998, Gaussian, Inc.),
 the Gaussian(R) 94 system (copyright 1995, Gaussian, Inc.),
 the Gaussian 92(TM) system (copyright 1992, Gaussian, Inc.),
 the Gaussian 90(TM) system (copyright 1990, Gaussian, Inc.),
 the Gaussian 88(TM) system (copyright 1988, Gaussian, Inc.),
 the Gaussian 86(TM) system (copyright 1986, Carnegie Mellon
 University), and the Gaussian 82(TM) system (copyright 1983,
 Carnegie Mellon University). Gaussian is a federally registered
 trademark of Gaussian, Inc.
  
 This software contains proprietary and confidential information,
 including trade secrets, belonging to Gaussian, Inc.
  
 This software is provided under written license and may be
 used, copied, transmitted, or stored only in accord with that
 written license.
  
 The following legend is applicable only to US Government
 contracts under FAR:
  
                    RESTRICTED RIGHTS LEGEND
  
 Use, reproduction and disclosure by the US Government is
 subject to restrictions as set forth in subparagraphs (a)
 and (c) of the Commercial Computer Software - Restricted
 Rights clause in FAR 52.227-19.
  
 Gaussian, Inc.
 340 Quinnipiac St., Bldg. 40, Wallingford CT 06492
  
  
 ---------------------------------------------------------------
 Warning -- This program may not be used in any manner that
 competes with the business of Gaussian, Inc. or will provide
 assistance to any competitor of Gaussian, Inc.  The licensee
 of this program is prohibited from giving any competitor of
 Gaussian, Inc. access to this program.  By using this program,
 the user acknowledges that Gaussian, Inc. is engaged in the
 business of creating and licensing software in the field of
 computational chemistry and represents and warrants to the
 licensee that it is not a competitor of Gaussian, Inc. and that
 it will not use this program in any manner prohibited above.
 ---------------------------------------------------------------
  

 Cite this work as:
 Gaussian 09, Revision C.01,
 M. J. Frisch, G. W. Trucks, H. B. Schlegel, G. E. Scuseria, 
 M. A. Robb, J. R. Cheeseman, G. Scalmani, V. Barone, B. Mennucci, 
 G. A. Petersson, H. Nakatsuji, M. Caricato, X. Li, H. P. Hratchian, 
 A. F. Izmaylov, J. Bloino, G. Zheng, J. L. Sonnenberg, M. Hada, 
 M. Ehara, K. Toyota, R. Fukuda, J. Hasegawa, M. Ishida, T. Nakajima, 
 Y. Honda, O. Kitao, H. Nakai, T. Vreven, J. A. Montgomery, Jr., 
 J. E. Peralta, F. Ogliaro, M. Bearpark, J. J. Heyd, E. Brothers, 
 K. N. Kudin, V. N. Staroverov, T. Keith, R. Kobayashi, J. Normand, 
 K. Raghavachari, A. Rendell, J. C. Burant, S. S. Iyengar, J. Tomasi, 
 M. Cossi, N. Rega, J. M. Millam, M. Klene, J. E. Knox, J. B. Cross, 
 V. Bakken, C. Adamo, J. Jaramillo, R. Gomperts, R. E. Stratmann, 
 O. Yazyev, A. J. Austin, R. Cammi, C. Pomelli, J. W. Ochterski, 
 R. L. Martin, K. Morokuma, V. G. Zakrzewski, G. A. Voth, 
 P. Salvador, J. J. Dannenberg, S. Dapprich, A. D. Daniels, 
 O. Farkas, J. B. Foresman, J. V. Ortiz, J. Cioslowski, 
 and D. J. Fox, Gaussian, Inc., Wallingford CT, 2010.
 
 ******************************************
 Gaussian 09:  EM64L-G09RevC.01 23-Sep-2011
                10-Aug-2018 
 ******************************************
 %nproc=2
 Will use up to    2 processors via shared memory.
 %mem=256MB
 %RWF=bm3.rwf
 %chk=bm381
 %NoSave
 --------------------------------------
 #SP PBE1PBE/Def2TZVP geom=connectivity
 --------------------------------------
 1/38=1,57=2/1;
 2/12=2,17=6,18=5,40=1/2;
 3/5=44,7=101,11=2,16=1,25=1,30=1,74=-13/1,2,3;
 4//1;
 5/5=2,38=5/2;
 6/7=2,8=2,9=2,10=2,28=1/1;
 99/5=1,9=1/99;
 -------------
 Structure: 81
 -------------
 Charge =  0 Multiplicity = 1
 Symbolic Z-Matrix:
 H                     0.        0.        0. 
 C                     1.093     0.        0. 
 C                     1.655     1.421     0. 
 H                     1.41     -0.56     -0.885 
 H                     1.424    -0.557     0.88 
 H                     1.308     1.969    -0.883 
 Si                    3.513     1.515     0.035 
 H                     1.282     1.975     0.868 
 O                     4.139     0.859    -1.114 
 O                     3.968     0.824     1.454 
 H                     4.029     2.906    -0.04 
 H                     3.9      -0.052    -1.288 
 C                     5.301     0.766     1.905 
 H                     5.308     0.322     2.902 
 H                     5.747     1.766     1.967 
 H                     5.921     0.153     1.244 
 
                          Input orientation:                          
 ---------------------------------------------------------------------
 Center     Atomic      Atomic             Coordinates (Angstroms)
 Number     Number       Type             X           Y           Z
 ---------------------------------------------------------------------
      1          1           0        0.000000    0.000000    0.000000
      2          6           0        1.093000    0.000000    0.000000
      3          6           0        1.655000    1.421000    0.000000
      4          1           0        1.410000   -0.560000   -0.885000
      5          1           0        1.424000   -0.557000    0.880000
      6          1           0        1.308000    1.969000   -0.883000
      7         14           0        3.513000    1.515000    0.035000
      8          1           0        1.282000    1.975000    0.868000
      9          8           0        4.139000    0.859000   -1.114000
     10          8           0        3.968000    0.824000    1.454000
     11          1           0        4.029000    2.906000   -0.040000
     12          1           0        3.900000   -0.052000   -1.288000
     13          6           0        5.301000    0.766000    1.905000
     14          1           0        5.308000    0.322000    2.902000
     15          1           0        5.747000    1.766000    1.967000
     16          1           0        5.921000    0.153000    1.244000
 ---------------------------------------------------------------------
                    Distance matrix (angstroms):
                    1          2          3          4          5
     1  H    0.000000
     2  C    1.093000   0.000000
     3  C    2.181345   1.528098   0.000000
     4  H    1.756395   1.094218   2.183486   0.000000
     5  H    1.764207   1.092799   2.177210   1.765058   0.000000
     6  H    2.523393   2.168611   1.095629   2.531057   3.082580
     7  Si   3.825914   2.855320   1.860706   3.094291   3.061230
     8  H    2.509497   2.165588   1.095203   3.084740   2.536007
     9  O    4.371521   3.355144   2.779765   3.084387   3.654082
    10  O    4.305591   3.325465   2.796515   3.732257   2.951029
    11  H    4.967824   4.131166   2.800482   4.425646   4.429988
    12  H    4.107511   3.088834   2.978036   2.573047   3.329538
    13  C    5.684750   4.682205   4.165497   4.968124   4.222805
    14  H    6.058065   5.127525   4.793101   5.505788   4.466160
    15  H    6.325809   5.352342   4.553304   5.688036   5.026552
    16  H    6.052205   4.988039   4.621051   5.038862   4.567232
                    6          7          8          9         10
     6  H    0.000000
     7  Si   2.431227   0.000000
     8  H    1.751203   2.425459   0.000000
     9  O    3.049594   1.463698   3.651880   0.000000
    10  O    3.721316   1.642579   2.980401   2.573925   0.000000
    11  H    2.998743   1.485517   3.039282   2.314257   2.563295
    12  H    3.311636   2.087004   3.951074   0.957767   2.879334
    13  C    5.016393   2.693482   4.323125   3.236241   1.408423
    14  H    5.747942   3.586776   4.803982   4.217012   2.035757
    15  H    5.279056   2.964183   4.603011   3.591779   2.077348
    16  H    5.394604   3.019137   4.998138   3.038770   2.075705
                   11         12         13         14         15
    11  H    0.000000
    12  H    3.213084   0.000000
    13  C    3.159210   3.581504   0.000000
    14  H    4.119255   4.436039   1.091418   0.000000
    15  H    2.877355   4.160716   1.096704   1.775410   0.000000
    16  H    3.578733   3.246150   1.094116   1.775752   1.776168
                   16
    16  H    0.000000
 Stoichiometry    C3H10O2Si
 Framework group  C1[X(C3H10O2Si)]
 Deg. of freedom    42
 Full point group                 C1      NOp   1
 Largest Abelian subgroup         C1      NOp   1
 Largest concise Abelian subgroup C1      NOp   1
                         Standard orientation:                         
 ---------------------------------------------------------------------
 Center     Atomic      Atomic             Coordinates (Angstroms)
 Number     Number       Type             X           Y           Z
 ---------------------------------------------------------------------
      1          1           0       -3.227177   -1.229037   -0.378893
      2          6           0       -2.233219   -0.822272   -0.581967
      3          6           0       -1.619514   -0.188792    0.665893
      4          1           0       -2.347918   -0.093763   -1.390319
      5          1           0       -1.611961   -1.638782   -0.958213
      6          1           0       -2.257201    0.621712    1.035813
      7         14           0        0.091250    0.499981    0.418703
      8          1           0       -1.563138   -0.924994    1.474780
      9          8           0        0.142474    1.546828   -0.603011
     10          8           0        1.036388   -0.784082    0.023780
     11          1           0        0.630234    1.173295    1.628210
     12          1           0       -0.211942    1.338762   -1.468122
     13          6           0        2.429156   -0.701670   -0.168731
     14          1           0        2.811862   -1.707836   -0.348617
     15          1           0        2.932363   -0.291563    0.715211
     16          1           0        2.677931   -0.073081   -1.029009
 ---------------------------------------------------------------------
 Rotational constants (GHZ):      4.4153631      1.9169571      1.6215340
 Standard basis: def2TZVP (5D, 7F)
 There are   252 symmetry adapted basis functions of A   symmetry.
 Integral buffers will be    131072 words long.
 Raffenetti 2 integral format.
 Two-electron integral symmetry is turned on.
   252 basis functions,   404 primitive gaussians,   282 cartesian basis functions
    29 alpha electrons       29 beta electrons
       nuclear repulsion energy       336.7065889992 Hartrees.
 NAtoms=   16 NActive=   16 NUniq=   16 SFac= 1.00D+00 NAtFMM=   60 NAOKFM=F Big=F
 One-electron integrals computed using PRISM.
   1 Symmetry operations used in ECPInt.
 ECPInt:  NShTT=    5886 NPrTT=   17754 LenC2=    5783 LenP2D=   13963.
 LDataN:  DoStor=T MaxTD1= 6 Len=  172
 NBasis=   252 RedAO= T  NBF=   252
 NBsUse=   252 1.00D-06 NBFU=   252
 Harris functional with IExCor= 1009 diagonalized for initial guess.
 ExpMin= 7.01D-02 ExpMax= 4.48D+04 ExpMxC= 1.53D+03 IAcc=2 IRadAn=         4 AccDes= 0.00D+00
 HarFok:  IExCor= 1009 AccDes= 0.00D+00 IRadAn=         4 IDoV= 1
 ScaDFX=  1.000000  1.000000  1.000000  1.000000
 FoFCou: FMM=F IPFlag=           0 FMFlag=      100000 FMFlg1=           0
         NFxFlg=           0 DoJE=T BraDBF=F KetDBF=T FulRan=T
         Omega=  0.000000  0.000000  1.000000  0.000000  0.000000 ICntrl=     500 IOpCl=  0
         NMat0=    1 NMatS0=    1 NMatT0=    0 NMatD0=    1 NMtDS0=    0 NMtDT0=    0
         I1Cent=           4 NGrid=           0.
 Petite list used in FoFCou.
 Initial guess orbital symmetries:
       Occupied  (A) (A) (A) (A) (A) (A) (A) (A) (A) (A) (A) (A)
                 (A) (A) (A) (A) (A) (A) (A) (A) (A) (A) (A) (A)
                 (A) (A) (A) (A) (A)
       Virtual   (A) (A) (A) (A) (A) (A) (A) (A) (A) (A) (A) (A)
                 (A) (A) (A) (A) (A) (A) (A) (A) (A) (A) (A) (A)
                 (A) (A) (A) (A) (A) (A) (A) (A) (A) (A) (A) (A)
                 (A) (A) (A) (A) (A) (A) (A) (A) (A) (A) (A) (A)
                 (A) (A) (A) (A) (A) (A) (A) (A) (A) (A) (A) (A)
                 (A) (A) (A) (A) (A) (A) (A) (A) (A) (A) (A) (A)
                 (A) (A) (A) (A) (A) (A) (A) (A) (A) (A) (A) (A)
                 (A) (A) (A) (A) (A) (A) (A) (A) (A) (A) (A) (A)
                 (A) (A) (A) (A) (A) (A) (A) (A) (A) (A) (A) (A)
                 (A) (A) (A) (A) (A) (A) (A) (A) (A) (A) (A) (A)
                 (A) (A) (A) (A) (A) (A) (A) (A) (A) (A) (A) (A)
                 (A) (A) (A) (A) (A) (A) (A) (A) (A) (A) (A) (A)
                 (A) (A) (A) (A) (A) (A) (A) (A) (A) (A) (A) (A)
                 (A) (A) (A) (A) (A) (A) (A) (A) (A) (A) (A) (A)
                 (A) (A) (A) (A) (A) (A) (A) (A) (A) (A) (A) (A)
                 (A) (A) (A) (A) (A) (A) (A) (A) (A) (A) (A) (A)
                 (A) (A) (A) (A) (A) (A) (A) (A) (A) (A) (A) (A)
                 (A) (A) (A) (A) (A) (A) (A) (A) (A) (A) (A) (A)
                 (A) (A) (A) (A) (A) (A) (A)
 The electronic state of the initial guess is 1-A.
 Requested convergence on RMS density matrix=1.00D-08 within 128 cycles.
 Requested convergence on MAX density matrix=1.00D-06.
 Requested convergence on             energy=1.00D-06.
 No special actions if energy rises.
 Integral accuracy reduced to 1.0D-05 until final iterations.
 Initial convergence to 1.0D-05 achieved.  Increase integral accuracy.
 SCF Done:  E(RPBE1PBE) =  -560.033356562     A.U. after   13 cycles
             Convg  =    0.3509D-08             -V/T =  2.0023

 **********************************************************************

            Population analysis using the SCF density.

 **********************************************************************

 Orbital symmetries:
       Occupied  (A) (A) (A) (A) (A) (A) (A) (A) (A) (A) (A) (A)
                 (A) (A) (A) (A) (A) (A) (A) (A) (A) (A) (A) (A)
                 (A) (A) (A) (A) (A)
       Virtual   (A) (A) (A) (A) (A) (A) (A) (A) (A) (A) (A) (A)
                 (A) (A) (A) (A) (A) (A) (A) (A) (A) (A) (A) (A)
                 (A) (A) (A) (A) (A) (A) (A) (A) (A) (A) (A) (A)
                 (A) (A) (A) (A) (A) (A) (A) (A) (A) (A) (A) (A)
                 (A) (A) (A) (A) (A) (A) (A) (A) (A) (A) (A) (A)
                 (A) (A) (A) (A) (A) (A) (A) (A) (A) (A) (A) (A)
                 (A) (A) (A) (A) (A) (A) (A) (A) (A) (A) (A) (A)
                 (A) (A) (A) (A) (A) (A) (A) (A) (A) (A) (A) (A)
                 (A) (A) (A) (A) (A) (A) (A) (A) (A) (A) (A) (A)
                 (A) (A) (A) (A) (A) (A) (A) (A) (A) (A) (A) (A)
                 (A) (A) (A) (A) (A) (A) (A) (A) (A) (A) (A) (A)
                 (A) (A) (A) (A) (A) (A) (A) (A) (A) (A) (A) (A)
                 (A) (A) (A) (A) (A) (A) (A) (A) (A) (A) (A) (A)
                 (A) (A) (A) (A) (A) (A) (A) (A) (A) (A) (A) (A)
                 (A) (A) (A) (A) (A) (A) (A) (A) (A) (A) (A) (A)
                 (A) (A) (A) (A) (A) (A) (A) (A) (A) (A) (A) (A)
                 (A) (A) (A) (A) (A) (A) (A) (A) (A) (A) (A) (A)
                 (A) (A) (A) (A) (A) (A) (A) (A) (A) (A) (A) (A)
                 (A) (A) (A) (A) (A) (A) (A)
 The electronic state is 1-A.
 Alpha  occ. eigenvalues --  -66.22734 -19.21092 -19.19144 -10.26150 -10.21576
 Alpha  occ. eigenvalues --  -10.20083  -5.31152  -3.64744  -3.64508  -3.64348
 Alpha  occ. eigenvalues --   -1.08027  -1.02879  -0.77828  -0.70120  -0.63808
 Alpha  occ. eigenvalues --   -0.59644  -0.51424  -0.46733  -0.46485  -0.46040
 Alpha  occ. eigenvalues --   -0.43392  -0.41592  -0.40459  -0.39041  -0.36688
 Alpha  occ. eigenvalues --   -0.35794  -0.31440  -0.29952  -0.28922
 Alpha virt. eigenvalues --    0.02074   0.06041   0.06413   0.08329   0.09094
 Alpha virt. eigenvalues --    0.10438   0.11240   0.11902   0.12491   0.13539
 Alpha virt. eigenvalues --    0.14982   0.15424   0.16702   0.17324   0.19633
 Alpha virt. eigenvalues --    0.21525   0.22407   0.23964   0.24829   0.25160
 Alpha virt. eigenvalues --    0.26610   0.28958   0.29106   0.30565   0.32559
 Alpha virt. eigenvalues --    0.33803   0.36543   0.39092   0.40808   0.41153
 Alpha virt. eigenvalues --    0.42188   0.42789   0.44428   0.45135   0.46196
 Alpha virt. eigenvalues --    0.46652   0.47654   0.48049   0.50388   0.51038
 Alpha virt. eigenvalues --    0.52712   0.53602   0.55446   0.57308   0.59604
 Alpha virt. eigenvalues --    0.60731   0.63501   0.65971   0.67543   0.67725
 Alpha virt. eigenvalues --    0.74324   0.75653   0.76257   0.79050   0.82688
 Alpha virt. eigenvalues --    0.84138   0.84382   0.86391   0.88804   0.92171
 Alpha virt. eigenvalues --    0.93763   0.95883   0.98140   1.00344   1.01456
 Alpha virt. eigenvalues --    1.04936   1.07533   1.09776   1.11198   1.11557
 Alpha virt. eigenvalues --    1.12533   1.15708   1.18303   1.20764   1.22521
 Alpha virt. eigenvalues --    1.25961   1.31796   1.34017   1.37933   1.42153
 Alpha virt. eigenvalues --    1.43102   1.47262   1.50065   1.50811   1.53107
 Alpha virt. eigenvalues --    1.53918   1.55151   1.55554   1.56743   1.58339
 Alpha virt. eigenvalues --    1.59619   1.63310   1.64558   1.65818   1.67012
 Alpha virt. eigenvalues --    1.68779   1.73505   1.76984   1.79950   1.81025
 Alpha virt. eigenvalues --    1.82154   1.84538   1.86963   1.90035   1.93438
 Alpha virt. eigenvalues --    1.95668   1.96700   2.00597   2.03870   2.06579
 Alpha virt. eigenvalues --    2.06922   2.09314   2.13851   2.14034   2.16637
 Alpha virt. eigenvalues --    2.18506   2.20919   2.25820   2.30323   2.31388
 Alpha virt. eigenvalues --    2.33606   2.34346   2.35374   2.36381   2.37166
 Alpha virt. eigenvalues --    2.38741   2.41324   2.46687   2.48443   2.51196
 Alpha virt. eigenvalues --    2.52012   2.53177   2.55426   2.56537   2.58716
 Alpha virt. eigenvalues --    2.60453   2.61774   2.66334   2.68468   2.72051
 Alpha virt. eigenvalues --    2.74088   2.79335   2.80992   2.85712   2.87496
 Alpha virt. eigenvalues --    2.90562   2.94715   2.97394   3.00338   3.05166
 Alpha virt. eigenvalues --    3.09533   3.10312   3.11690   3.14460   3.16166
 Alpha virt. eigenvalues --    3.22266   3.22814   3.24154   3.29870   3.30769
 Alpha virt. eigenvalues --    3.32878   3.33391   3.38344   3.40931   3.44981
 Alpha virt. eigenvalues --    3.45805   3.46787   3.53279   3.54020   3.58180
 Alpha virt. eigenvalues --    3.59347   3.62767   3.65883   3.69730   3.77290
 Alpha virt. eigenvalues --    3.81927   3.92697   3.95708   4.02261   4.06725
 Alpha virt. eigenvalues --    4.19810   4.24530   4.25840   4.34586   4.37389
 Alpha virt. eigenvalues --    4.41942   4.47563   4.53933   4.57783   4.79178
 Alpha virt. eigenvalues --    5.14470   5.15962   5.19356   5.23578   5.30575
 Alpha virt. eigenvalues --    5.37191   5.41948   5.46006   5.47293   5.54948
 Alpha virt. eigenvalues --    5.80972   5.87454   6.04316   6.26520   6.44563
 Alpha virt. eigenvalues --    6.45850   6.57622   6.60895   6.63567   6.71712
 Alpha virt. eigenvalues --    6.80066   6.82722   6.90046   6.96710   7.09866
 Alpha virt. eigenvalues --    7.17974   7.22587  12.12836  22.37325  22.41354
 Alpha virt. eigenvalues --   22.46313  43.74336  43.96049
          Condensed to atoms (all electrons):
              1          2          3          4          5          6
     1  H    0.549339   0.409491  -0.032871  -0.025191  -0.024063  -0.006819
     2  C    0.409491   4.944264   0.306089   0.401747   0.414014  -0.032278
     3  C   -0.032871   0.306089   5.070984  -0.046130  -0.041259   0.385397
     4  H   -0.025191   0.401747  -0.046130   0.595975  -0.029345  -0.004908
     5  H   -0.024063   0.414014  -0.041259  -0.029345   0.532255   0.007946
     6  H   -0.006819  -0.032278   0.385397  -0.004908   0.007946   0.583529
     7  Si   0.007148  -0.017192   0.428572  -0.008161  -0.006725  -0.026262
     8  H   -0.007232  -0.026083   0.368015   0.008996  -0.004108  -0.025296
     9  O   -0.000043  -0.001498  -0.044092   0.003523  -0.000462  -0.001511
    10  O   -0.000001  -0.004622  -0.031943   0.000466   0.007396   0.001302
    11  H   -0.000111   0.002190  -0.037893   0.000207   0.000432   0.001687
    12  H   -0.000154   0.001680  -0.003248   0.002943   0.000098   0.000104
    13  C    0.000008  -0.000021   0.002490   0.000072  -0.000135  -0.000132
    14  H   -0.000004   0.000222  -0.000454  -0.000001  -0.000165  -0.000001
    15  H    0.000000  -0.000027  -0.000154  -0.000001   0.000084   0.000007
    16  H    0.000001  -0.000164   0.000912  -0.000010   0.000030   0.000014
              7          8          9         10         11         12
     1  H    0.007148  -0.007232  -0.000043  -0.000001  -0.000111  -0.000154
     2  C   -0.017192  -0.026083  -0.001498  -0.004622   0.002190   0.001680
     3  C    0.428572   0.368015  -0.044092  -0.031943  -0.037893  -0.003248
     4  H   -0.008161   0.008996   0.003523   0.000466   0.000207   0.002943
     5  H   -0.006725  -0.004108  -0.000462   0.007396   0.000432   0.000098
     6  H   -0.026262  -0.025296  -0.001511   0.001302   0.001687   0.000104
     7  Si  11.873125  -0.015235   0.531104   0.458428   0.389378  -0.037724
     8  H   -0.015235   0.580843   0.002358   0.001823   0.000952   0.000079
     9  O    0.531104   0.002358   7.671825  -0.042802  -0.018711   0.312265
    10  O    0.458428   0.001823  -0.042802   7.858755  -0.027756  -0.002295
    11  H    0.389378   0.000952  -0.018711  -0.027756   0.756541   0.005955
    12  H   -0.037724   0.000079   0.312265  -0.002295   0.005955   0.390703
    13  C   -0.047409   0.000043  -0.006511   0.263121   0.002373   0.001124
    14  H    0.007004   0.000003   0.000027  -0.041484  -0.000246   0.000025
    15  H   -0.017566  -0.000011  -0.000661  -0.043054   0.010980  -0.000108
    16  H   -0.006211  -0.000020   0.006410  -0.045828  -0.002178   0.000678
             13         14         15         16
     1  H    0.000008  -0.000004   0.000000   0.000001
     2  C   -0.000021   0.000222  -0.000027  -0.000164
     3  C    0.002490  -0.000454  -0.000154   0.000912
     4  H    0.000072  -0.000001  -0.000001  -0.000010
     5  H   -0.000135  -0.000165   0.000084   0.000030
     6  H   -0.000132  -0.000001   0.000007   0.000014
     7  Si  -0.047409   0.007004  -0.017566  -0.006211
     8  H    0.000043   0.000003  -0.000011  -0.000020
     9  O   -0.006511   0.000027  -0.000661   0.006410
    10  O    0.263121  -0.041484  -0.043054  -0.045828
    11  H    0.002373  -0.000246   0.010980  -0.002178
    12  H    0.001124   0.000025  -0.000108   0.000678
    13  C    4.761466   0.404847   0.418078   0.411407
    14  H    0.404847   0.567575  -0.030347  -0.034997
    15  H    0.418078  -0.030347   0.595014  -0.049709
    16  H    0.411407  -0.034997  -0.049709   0.607582
 Mulliken atomic charges:
              1
     1  H    0.130499
     2  C   -0.397813
     3  C   -0.324414
     4  H    0.099817
     5  H    0.144009
     6  H    0.117221
     7  Si   0.487727
     8  H    0.114874
     9  O   -0.411219
    10  O   -0.351505
    11  H   -0.083801
    12  H    0.327874
    13  C   -0.210820
    14  H    0.127996
    15  H    0.117474
    16  H    0.112081
 Sum of Mulliken atomic charges =   0.00000
 Mulliken charges with hydrogens summed into heavy atoms:
              1
     2  C   -0.023488
     3  C   -0.092319
     7  Si   0.403926
     9  O   -0.083345
    10  O   -0.351505
    13  C    0.146731
 Sum of Mulliken charges with hydrogens summed into heavy atoms =   0.00000
 Electronic spatial extent (au):  <R**2>=            846.8949
 Charge=              0.0000 electrons
 Dipole moment (field-independent basis, Debye):
    X=             -0.2645    Y=             -0.1037    Z=             -1.3733  Tot=              1.4024
 Quadrupole moment (field-independent basis, Debye-Ang):
   XX=            -41.6645   YY=            -48.3054   ZZ=            -42.8643
   XY=             -1.5063   XZ=             -0.1595   YZ=             -1.7758
 Traceless Quadrupole moment (field-independent basis, Debye-Ang):
   XX=              2.6136   YY=             -4.0273   ZZ=              1.4138
   XY=             -1.5063   XZ=             -0.1595   YZ=             -1.7758
 Octapole moment (field-independent basis, Debye-Ang**2):
  XXX=             14.5682  YYY=             -3.4709  ZZZ=            -12.3322  XYY=             -0.2322
  XXY=             -1.4416  XXZ=             -1.2710  XZZ=              0.4835  YZZ=              4.0510
  YYZ=             -2.8147  XYZ=              1.5190
 Hexadecapole moment (field-independent basis, Debye-Ang**3):
 XXXX=           -711.9971 YYYY=           -267.0294 ZZZZ=           -156.1599 XXXY=            -12.1770
 XXXZ=             -5.0071 YYYX=            -11.4632 YYYZ=             -5.8488 ZZZX=             -2.0766
 ZZZY=            -20.9334 XXYY=           -159.6165 XXZZ=           -151.2272 YYZZ=            -66.0120
 XXYZ=             -2.3455 YYXZ=             -1.9401 ZZXY=             -4.7353
 N-N= 3.367065889992D+02 E-N=-1.997883439720D+03  KE= 5.587682927479D+02
 1\1\GINC-TARSUS2\SP\RPBE1PBE\def2TZVP\C3H10O2Si1\RENATO\10-Aug-2018\0\
 \#SP PBE1PBE/Def2TZVP geom=connectivity\\Structure: 81\\0,1\H,0,0.,0.,
 0.\C,0,1.093,0.,0.\C,0,1.655,1.421,0.\H,0,1.41,-0.56,-0.885\H,0,1.424,
 -0.557,0.88\H,0,1.308,1.969,-0.883\Si,0,3.513,1.515,0.035\H,0,1.282,1.
 975,0.868\O,0,4.139,0.859,-1.114\O,0,3.968,0.824,1.454\H,0,4.029,2.906
 ,-0.04\H,0,3.9,-0.052,-1.288\C,0,5.301,0.766,1.905\H,0,5.308,0.322,2.9
 02\H,0,5.747,1.766,1.967\H,0,5.921,0.153,1.244\\Version=EM64L-G09RevC.
 01\State=1-A\HF=-560.0333566\RMSD=3.509e-09\Dipole=-0.0094475,-0.53387
 82,-0.1389777\Quadrupole=0.6931271,-0.1199194,-0.5732077,-1.2205317,2.
 0264798,1.9814985\PG=C01 [X(C3H10O2Si1)]\\@


 IF AT FIRST YOU DON'T SUCCEED, TRY, TRY AGAIN.
 THEN GIVE UP;
 THERE'S NO USE BEING A DAMN FOOL ABOUT IT.

                                 -- W. C. FIELDS
 Job cpu time:  0 days  0 hours  3 minutes 18.9 seconds.
 File lengths (MBytes):  RWF=     40 Int=      0 D2E=      0 Chk=      3 Scr=      1
 Normal termination of Gaussian 09 at Fri Aug 10 06:19:25 2018.
