 Entering Gaussian System, Link 0=g09
 Initial command:
 /usr/local/gaussian09/g09/l1.exe /scratch/renato/Gau-12901.inp -scrdir=/scratch/renato/
 Entering Link 1 = /usr/local/gaussian09/g09/l1.exe PID=     12903.
  
 Copyright (c) 1988,1990,1992,1993,1995,1998,2003,2009,2011,
            Gaussian, Inc.  All Rights Reserved.
  
 This is part of the Gaussian(R) 09 program.  It is based on
 the Gaussian(R) 03 system (copyright 2003, Gaussian, Inc.),
 the Gaussian(R) 98 system (copyright 1998, Gaussian, Inc.),
 the Gaussian(R) 94 system (copyright 1995, Gaussian, Inc.),
 the Gaussian 92(TM) system (copyright 1992, Gaussian, Inc.),
 the Gaussian 90(TM) system (copyright 1990, Gaussian, Inc.),
 the Gaussian 88(TM) system (copyright 1988, Gaussian, Inc.),
 the Gaussian 86(TM) system (copyright 1986, Carnegie Mellon
 University), and the Gaussian 82(TM) system (copyright 1983,
 Carnegie Mellon University). Gaussian is a federally registered
 trademark of Gaussian, Inc.
  
 This software contains proprietary and confidential information,
 including trade secrets, belonging to Gaussian, Inc.
  
 This software is provided under written license and may be
 used, copied, transmitted, or stored only in accord with that
 written license.
  
 The following legend is applicable only to US Government
 contracts under FAR:
  
                    RESTRICTED RIGHTS LEGEND
  
 Use, reproduction and disclosure by the US Government is
 subject to restrictions as set forth in subparagraphs (a)
 and (c) of the Commercial Computer Software - Restricted
 Rights clause in FAR 52.227-19.
  
 Gaussian, Inc.
 340 Quinnipiac St., Bldg. 40, Wallingford CT 06492
  
  
 ---------------------------------------------------------------
 Warning -- This program may not be used in any manner that
 competes with the business of Gaussian, Inc. or will provide
 assistance to any competitor of Gaussian, Inc.  The licensee
 of this program is prohibited from giving any competitor of
 Gaussian, Inc. access to this program.  By using this program,
 the user acknowledges that Gaussian, Inc. is engaged in the
 business of creating and licensing software in the field of
 computational chemistry and represents and warrants to the
 licensee that it is not a competitor of Gaussian, Inc. and that
 it will not use this program in any manner prohibited above.
 ---------------------------------------------------------------
  

 Cite this work as:
 Gaussian 09, Revision C.01,
 M. J. Frisch, G. W. Trucks, H. B. Schlegel, G. E. Scuseria, 
 M. A. Robb, J. R. Cheeseman, G. Scalmani, V. Barone, B. Mennucci, 
 G. A. Petersson, H. Nakatsuji, M. Caricato, X. Li, H. P. Hratchian, 
 A. F. Izmaylov, J. Bloino, G. Zheng, J. L. Sonnenberg, M. Hada, 
 M. Ehara, K. Toyota, R. Fukuda, J. Hasegawa, M. Ishida, T. Nakajima, 
 Y. Honda, O. Kitao, H. Nakai, T. Vreven, J. A. Montgomery, Jr., 
 J. E. Peralta, F. Ogliaro, M. Bearpark, J. J. Heyd, E. Brothers, 
 K. N. Kudin, V. N. Staroverov, T. Keith, R. Kobayashi, J. Normand, 
 K. Raghavachari, A. Rendell, J. C. Burant, S. S. Iyengar, J. Tomasi, 
 M. Cossi, N. Rega, J. M. Millam, M. Klene, J. E. Knox, J. B. Cross, 
 V. Bakken, C. Adamo, J. Jaramillo, R. Gomperts, R. E. Stratmann, 
 O. Yazyev, A. J. Austin, R. Cammi, C. Pomelli, J. W. Ochterski, 
 R. L. Martin, K. Morokuma, V. G. Zakrzewski, G. A. Voth, 
 P. Salvador, J. J. Dannenberg, S. Dapprich, A. D. Daniels, 
 O. Farkas, J. B. Foresman, J. V. Ortiz, J. Cioslowski, 
 and D. J. Fox, Gaussian, Inc., Wallingford CT, 2010.
 
 ******************************************
 Gaussian 09:  EM64L-G09RevC.01 23-Sep-2011
                10-Aug-2018 
 ******************************************
 %nproc=2
 Will use up to    2 processors via shared memory.
 %mem=256MB
 %RWF=bm3.rwf
 %chk=bm393
 %NoSave
 --------------------------------------
 #SP PBE1PBE/Def2TZVP geom=connectivity
 --------------------------------------
 1/38=1,57=2/1;
 2/12=2,17=6,18=5,40=1/2;
 3/5=44,7=101,11=2,16=1,25=1,30=1,74=-13/1,2,3;
 4//1;
 5/5=2,38=5/2;
 6/7=2,8=2,9=2,10=2,28=1/1;
 99/5=1,9=1/99;
 -------------
 Structure: 93
 -------------
 Charge =  0 Multiplicity = 1
 Symbolic Z-Matrix:
 H                     0.        0.        0. 
 C                     1.093     0.        0. 
 C                     1.655     1.421     0. 
 H                     1.41     -0.56     -0.885 
 H                     1.424    -0.557     0.88 
 H                     1.308     1.969    -0.883 
 Si                    3.513     1.515     0.035 
 H                     1.282     1.975     0.868 
 O                     4.149     0.849    -1.133 
 O                     3.968     0.824     1.454 
 H                     4.029     2.906    -0.04 
 H                     3.91     -0.063    -1.307 
 C                     5.301     0.766     1.905 
 H                     5.308     0.322     2.902 
 H                     5.747     1.766     1.967 
 H                     5.921     0.153     1.244 
 
                          Input orientation:                          
 ---------------------------------------------------------------------
 Center     Atomic      Atomic             Coordinates (Angstroms)
 Number     Number       Type             X           Y           Z
 ---------------------------------------------------------------------
      1          1           0        0.000000    0.000000    0.000000
      2          6           0        1.093000    0.000000    0.000000
      3          6           0        1.655000    1.421000    0.000000
      4          1           0        1.410000   -0.560000   -0.885000
      5          1           0        1.424000   -0.557000    0.880000
      6          1           0        1.308000    1.969000   -0.883000
      7         14           0        3.513000    1.515000    0.035000
      8          1           0        1.282000    1.975000    0.868000
      9          8           0        4.149000    0.849000   -1.133000
     10          8           0        3.968000    0.824000    1.454000
     11          1           0        4.029000    2.906000   -0.040000
     12          1           0        3.910000   -0.063000   -1.307000
     13          6           0        5.301000    0.766000    1.905000
     14          1           0        5.308000    0.322000    2.902000
     15          1           0        5.747000    1.766000    1.967000
     16          1           0        5.921000    0.153000    1.244000
 ---------------------------------------------------------------------
                    Distance matrix (angstroms):
                    1          2          3          4          5
     1  H    0.000000
     2  C    1.093000   0.000000
     3  C    2.181345   1.528098   0.000000
     4  H    1.756395   1.094218   2.183486   0.000000
     5  H    1.764207   1.092799   2.177210   1.765058   0.000000
     6  H    2.523393   2.168611   1.095629   2.531057   3.082580
     7  Si   3.825914   2.855320   1.860706   3.094291   3.061230
     8  H    2.509497   2.165588   1.095203   3.084740   2.536007
     9  O    4.383913   3.368030   2.798376   3.090130   3.668055
    10  O    4.305591   3.325465   2.796515   3.732257   2.951029
    11  H    4.967824   4.131166   2.800482   4.425646   4.429988
    12  H    4.123144   3.106076   2.999255   2.583620   3.347716
    13  C    5.684750   4.682205   4.165497   4.968124   4.222805
    14  H    6.058065   5.127525   4.793101   5.505788   4.466160
    15  H    6.325809   5.352342   4.553304   5.688036   5.026552
    16  H    6.052205   4.988039   4.621051   5.038862   4.567232
                    6          7          8          9         10
     6  H    0.000000
     7  Si   2.431227   0.000000
     8  H    1.751203   2.425459   0.000000
     9  O    3.064014   1.487372   3.673087   0.000000
    10  O    3.721316   1.642579   2.980401   2.593445   0.000000
    11  H    2.998743   1.485517   3.039282   2.332445   2.563295
    12  H    3.328544   2.109184   3.973720   0.958718   2.900561
    13  C    5.016393   2.693482   4.323125   3.250144   1.408423
    14  H    5.747942   3.586776   4.803982   4.231103   2.035757
    15  H    5.279056   2.964183   4.603011   3.606174   2.077348
    16  H    5.394604   3.019137   4.998138   3.045411   2.075705
                   11         12         13         14         15
    11  H    0.000000
    12  H    3.230234   0.000000
    13  C    3.159210   3.597091   0.000000
    14  H    4.119255   4.451776   1.091418   0.000000
    15  H    2.877355   4.175989   1.096704   1.775410   0.000000
    16  H    3.578733   3.255515   1.094116   1.775752   1.776168
                   16
    16  H    0.000000
 Stoichiometry    C3H10O2Si
 Framework group  C1[X(C3H10O2Si)]
 Deg. of freedom    42
 Full point group                 C1      NOp   1
 Largest Abelian subgroup         C1      NOp   1
 Largest concise Abelian subgroup C1      NOp   1
                         Standard orientation:                         
 ---------------------------------------------------------------------
 Center     Atomic      Atomic             Coordinates (Angstroms)
 Number     Number       Type             X           Y           Z
 ---------------------------------------------------------------------
      1          1           0       -3.227529   -1.225490   -0.394114
      2          6           0       -2.233433   -0.816181   -0.591314
      3          6           0       -1.619759   -0.200415    0.665397
      4          1           0       -2.347814   -0.076384   -1.389393
      5          1           0       -1.612329   -1.627501   -0.978871
      6          1           0       -2.257293    0.604992    1.046542
      7         14           0        0.091224    0.491304    0.428148
      8          1           0       -1.563702   -0.947896    1.463895
      9          8           0        0.143477    1.570011   -0.594562
     10          8           0        1.036089   -0.787346    0.015412
     11          1           0        0.630193    1.147458    1.647056
     12          1           0       -0.210929    1.373899   -1.463514
     13          6           0        2.428908   -0.702610   -0.175711
     14          1           0        2.811379   -1.706257   -0.369623
     15          1           0        2.932083   -0.305066    0.713970
     16          1           0        2.677983   -0.062092   -1.027055
 ---------------------------------------------------------------------
 Rotational constants (GHZ):      4.3671061      1.9146766      1.6165860
 Standard basis: def2TZVP (5D, 7F)
 There are   252 symmetry adapted basis functions of A   symmetry.
 Integral buffers will be    131072 words long.
 Raffenetti 2 integral format.
 Two-electron integral symmetry is turned on.
   252 basis functions,   404 primitive gaussians,   282 cartesian basis functions
    29 alpha electrons       29 beta electrons
       nuclear repulsion energy       335.7159160114 Hartrees.
 NAtoms=   16 NActive=   16 NUniq=   16 SFac= 1.00D+00 NAtFMM=   60 NAOKFM=F Big=F
 One-electron integrals computed using PRISM.
   1 Symmetry operations used in ECPInt.
 ECPInt:  NShTT=    5886 NPrTT=   17754 LenC2=    5783 LenP2D=   13956.
 LDataN:  DoStor=T MaxTD1= 6 Len=  172
 NBasis=   252 RedAO= T  NBF=   252
 NBsUse=   252 1.00D-06 NBFU=   252
 Harris functional with IExCor= 1009 diagonalized for initial guess.
 ExpMin= 7.01D-02 ExpMax= 4.48D+04 ExpMxC= 1.53D+03 IAcc=2 IRadAn=         4 AccDes= 0.00D+00
 HarFok:  IExCor= 1009 AccDes= 0.00D+00 IRadAn=         4 IDoV= 1
 ScaDFX=  1.000000  1.000000  1.000000  1.000000
 FoFCou: FMM=F IPFlag=           0 FMFlag=      100000 FMFlg1=           0
         NFxFlg=           0 DoJE=T BraDBF=F KetDBF=T FulRan=T
         Omega=  0.000000  0.000000  1.000000  0.000000  0.000000 ICntrl=     500 IOpCl=  0
         NMat0=    1 NMatS0=    1 NMatT0=    0 NMatD0=    1 NMtDS0=    0 NMtDT0=    0
         I1Cent=           4 NGrid=           0.
 Petite list used in FoFCou.
 Initial guess orbital symmetries:
       Occupied  (A) (A) (A) (A) (A) (A) (A) (A) (A) (A) (A) (A)
                 (A) (A) (A) (A) (A) (A) (A) (A) (A) (A) (A) (A)
                 (A) (A) (A) (A) (A)
       Virtual   (A) (A) (A) (A) (A) (A) (A) (A) (A) (A) (A) (A)
                 (A) (A) (A) (A) (A) (A) (A) (A) (A) (A) (A) (A)
                 (A) (A) (A) (A) (A) (A) (A) (A) (A) (A) (A) (A)
                 (A) (A) (A) (A) (A) (A) (A) (A) (A) (A) (A) (A)
                 (A) (A) (A) (A) (A) (A) (A) (A) (A) (A) (A) (A)
                 (A) (A) (A) (A) (A) (A) (A) (A) (A) (A) (A) (A)
                 (A) (A) (A) (A) (A) (A) (A) (A) (A) (A) (A) (A)
                 (A) (A) (A) (A) (A) (A) (A) (A) (A) (A) (A) (A)
                 (A) (A) (A) (A) (A) (A) (A) (A) (A) (A) (A) (A)
                 (A) (A) (A) (A) (A) (A) (A) (A) (A) (A) (A) (A)
                 (A) (A) (A) (A) (A) (A) (A) (A) (A) (A) (A) (A)
                 (A) (A) (A) (A) (A) (A) (A) (A) (A) (A) (A) (A)
                 (A) (A) (A) (A) (A) (A) (A) (A) (A) (A) (A) (A)
                 (A) (A) (A) (A) (A) (A) (A) (A) (A) (A) (A) (A)
                 (A) (A) (A) (A) (A) (A) (A) (A) (A) (A) (A) (A)
                 (A) (A) (A) (A) (A) (A) (A) (A) (A) (A) (A) (A)
                 (A) (A) (A) (A) (A) (A) (A) (A) (A) (A) (A) (A)
                 (A) (A) (A) (A) (A) (A) (A) (A) (A) (A) (A) (A)
                 (A) (A) (A) (A) (A) (A) (A)
 The electronic state of the initial guess is 1-A.
 Requested convergence on RMS density matrix=1.00D-08 within 128 cycles.
 Requested convergence on MAX density matrix=1.00D-06.
 Requested convergence on             energy=1.00D-06.
 No special actions if energy rises.
 Integral accuracy reduced to 1.0D-05 until final iterations.
 Initial convergence to 1.0D-05 achieved.  Increase integral accuracy.
 SCF Done:  E(RPBE1PBE) =  -560.041044442     A.U. after   13 cycles
             Convg  =    0.3513D-08             -V/T =  2.0024

 **********************************************************************

            Population analysis using the SCF density.

 **********************************************************************

 Orbital symmetries:
       Occupied  (A) (A) (A) (A) (A) (A) (A) (A) (A) (A) (A) (A)
                 (A) (A) (A) (A) (A) (A) (A) (A) (A) (A) (A) (A)
                 (A) (A) (A) (A) (A)
       Virtual   (A) (A) (A) (A) (A) (A) (A) (A) (A) (A) (A) (A)
                 (A) (A) (A) (A) (A) (A) (A) (A) (A) (A) (A) (A)
                 (A) (A) (A) (A) (A) (A) (A) (A) (A) (A) (A) (A)
                 (A) (A) (A) (A) (A) (A) (A) (A) (A) (A) (A) (A)
                 (A) (A) (A) (A) (A) (A) (A) (A) (A) (A) (A) (A)
                 (A) (A) (A) (A) (A) (A) (A) (A) (A) (A) (A) (A)
                 (A) (A) (A) (A) (A) (A) (A) (A) (A) (A) (A) (A)
                 (A) (A) (A) (A) (A) (A) (A) (A) (A) (A) (A) (A)
                 (A) (A) (A) (A) (A) (A) (A) (A) (A) (A) (A) (A)
                 (A) (A) (A) (A) (A) (A) (A) (A) (A) (A) (A) (A)
                 (A) (A) (A) (A) (A) (A) (A) (A) (A) (A) (A) (A)
                 (A) (A) (A) (A) (A) (A) (A) (A) (A) (A) (A) (A)
                 (A) (A) (A) (A) (A) (A) (A) (A) (A) (A) (A) (A)
                 (A) (A) (A) (A) (A) (A) (A) (A) (A) (A) (A) (A)
                 (A) (A) (A) (A) (A) (A) (A) (A) (A) (A) (A) (A)
                 (A) (A) (A) (A) (A) (A) (A) (A) (A) (A) (A) (A)
                 (A) (A) (A) (A) (A) (A) (A) (A) (A) (A) (A) (A)
                 (A) (A) (A) (A) (A) (A) (A) (A) (A) (A) (A) (A)
                 (A) (A) (A) (A) (A) (A) (A)
 The electronic state is 1-A.
 Alpha  occ. eigenvalues --  -66.23115 -19.21027 -19.19256 -10.26187 -10.21593
 Alpha  occ. eigenvalues --  -10.20183  -5.31398  -3.64968  -3.64770  -3.64612
 Alpha  occ. eigenvalues --   -1.07375  -1.02933  -0.77873  -0.70169  -0.63822
 Alpha  occ. eigenvalues --   -0.59223  -0.51414  -0.46695  -0.46477  -0.46038
 Alpha  occ. eigenvalues --   -0.43397  -0.41285  -0.40449  -0.38727  -0.36766
 Alpha  occ. eigenvalues --   -0.35823  -0.31512  -0.30019  -0.29026
 Alpha virt. eigenvalues --    0.02109   0.05996   0.06363   0.08293   0.09079
 Alpha virt. eigenvalues --    0.10409   0.11199   0.11855   0.12471   0.13540
 Alpha virt. eigenvalues --    0.14881   0.15395   0.16626   0.17229   0.19595
 Alpha virt. eigenvalues --    0.21501   0.22363   0.23911   0.24809   0.25130
 Alpha virt. eigenvalues --    0.26618   0.28880   0.29147   0.30453   0.32375
 Alpha virt. eigenvalues --    0.33666   0.36555   0.39110   0.40704   0.41081
 Alpha virt. eigenvalues --    0.42153   0.42755   0.44390   0.45140   0.46130
 Alpha virt. eigenvalues --    0.46581   0.47631   0.48024   0.50341   0.50960
 Alpha virt. eigenvalues --    0.52586   0.53550   0.55386   0.57250   0.59650
 Alpha virt. eigenvalues --    0.60732   0.63425   0.65952   0.67461   0.67636
 Alpha virt. eigenvalues --    0.74296   0.75527   0.76109   0.78938   0.82466
 Alpha virt. eigenvalues --    0.84054   0.84283   0.86399   0.88691   0.92138
 Alpha virt. eigenvalues --    0.93651   0.95846   0.97962   1.00242   1.01357
 Alpha virt. eigenvalues --    1.04865   1.07474   1.09676   1.11073   1.11647
 Alpha virt. eigenvalues --    1.12517   1.15546   1.17336   1.20507   1.22201
 Alpha virt. eigenvalues --    1.25828   1.31554   1.33624   1.37730   1.42034
 Alpha virt. eigenvalues --    1.42953   1.47073   1.49754   1.50588   1.53040
 Alpha virt. eigenvalues --    1.53666   1.55102   1.55410   1.56688   1.58221
 Alpha virt. eigenvalues --    1.59578   1.63210   1.64436   1.65617   1.66887
 Alpha virt. eigenvalues --    1.68632   1.73244   1.76827   1.79889   1.80958
 Alpha virt. eigenvalues --    1.81849   1.84154   1.86649   1.89856   1.93225
 Alpha virt. eigenvalues --    1.95574   1.96589   2.00504   2.03695   2.06297
 Alpha virt. eigenvalues --    2.06758   2.09206   2.13548   2.13678   2.16319
 Alpha virt. eigenvalues --    2.18327   2.20565   2.25987   2.30222   2.31137
 Alpha virt. eigenvalues --    2.33552   2.34200   2.35337   2.36296   2.36935
 Alpha virt. eigenvalues --    2.38239   2.41175   2.46315   2.48341   2.50942
 Alpha virt. eigenvalues --    2.51794   2.52916   2.55308   2.56479   2.58648
 Alpha virt. eigenvalues --    2.60318   2.61712   2.66212   2.68250   2.71871
 Alpha virt. eigenvalues --    2.73925   2.79018   2.80924   2.85511   2.87012
 Alpha virt. eigenvalues --    2.90047   2.94557   2.96902   3.00290   3.04833
 Alpha virt. eigenvalues --    3.09487   3.09838   3.11644   3.13913   3.16001
 Alpha virt. eigenvalues --    3.22107   3.22766   3.24040   3.29610   3.30623
 Alpha virt. eigenvalues --    3.32777   3.33290   3.38211   3.40850   3.44920
 Alpha virt. eigenvalues --    3.45762   3.46706   3.53074   3.53962   3.57614
 Alpha virt. eigenvalues --    3.59136   3.62702   3.65762   3.68242   3.77220
 Alpha virt. eigenvalues --    3.81839   3.92534   3.95536   4.01072   4.04813
 Alpha virt. eigenvalues --    4.19689   4.24487   4.25754   4.34543   4.37329
 Alpha virt. eigenvalues --    4.41906   4.47481   4.53867   4.57719   4.79121
 Alpha virt. eigenvalues --    5.14552   5.16102   5.18998   5.23088   5.30320
 Alpha virt. eigenvalues --    5.36606   5.41893   5.45436   5.46639   5.52226
 Alpha virt. eigenvalues --    5.80836   5.87370   6.04230   6.25604   6.44124
 Alpha virt. eigenvalues --    6.45689   6.57130   6.60712   6.63117   6.71001
 Alpha virt. eigenvalues --    6.79755   6.82637   6.89871   6.94919   7.08905
 Alpha virt. eigenvalues --    7.17703   7.22835  12.11121  22.37295  22.41308
 Alpha virt. eigenvalues --   22.46182  43.72563  43.95823
          Condensed to atoms (all electrons):
              1          2          3          4          5          6
     1  H    0.549582   0.409378  -0.032951  -0.025232  -0.024142  -0.006828
     2  C    0.409378   4.943441   0.307263   0.401702   0.413865  -0.031878
     3  C   -0.032951   0.307263   5.066290  -0.045965  -0.041034   0.385665
     4  H   -0.025232   0.401702  -0.045965   0.594713  -0.029124  -0.004916
     5  H   -0.024142   0.413865  -0.041034  -0.029124   0.532476   0.007921
     6  H   -0.006828  -0.031878   0.385665  -0.004916   0.007921   0.582882
     7  Si   0.007217  -0.017458   0.427580  -0.007835  -0.006951  -0.026634
     8  H   -0.007188  -0.026334   0.368243   0.008983  -0.004108  -0.025454
     9  O   -0.000037  -0.001708  -0.043718   0.003655  -0.000453  -0.001430
    10  O    0.000001  -0.004678  -0.031874   0.000463   0.007426   0.001299
    11  H   -0.000111   0.002128  -0.037470   0.000208   0.000430   0.001643
    12  H   -0.000143   0.001473  -0.003081   0.002808   0.000089   0.000101
    13  C    0.000008  -0.000027   0.002419   0.000074  -0.000127  -0.000131
    14  H   -0.000004   0.000222  -0.000449  -0.000001  -0.000165  -0.000001
    15  H    0.000000  -0.000029  -0.000136  -0.000001   0.000084   0.000007
    16  H    0.000001  -0.000160   0.000899  -0.000010   0.000027   0.000014
              7          8          9         10         11         12
     1  H    0.007217  -0.007188  -0.000037   0.000001  -0.000111  -0.000143
     2  C   -0.017458  -0.026334  -0.001708  -0.004678   0.002128   0.001473
     3  C    0.427580   0.368243  -0.043718  -0.031874  -0.037470  -0.003081
     4  H   -0.007835   0.008983   0.003655   0.000463   0.000208   0.002808
     5  H   -0.006951  -0.004108  -0.000453   0.007426   0.000430   0.000089
     6  H   -0.026634  -0.025454  -0.001430   0.001299   0.001643   0.000101
     7  Si  11.872888  -0.015031   0.524411   0.456879   0.389734  -0.035892
     8  H   -0.015031   0.580538   0.002298   0.001829   0.000925   0.000058
     9  O    0.524411   0.002298   7.696230  -0.042118  -0.018414   0.310184
    10  O    0.456879   0.001829  -0.042118   7.857013  -0.027568  -0.002083
    11  H    0.389734   0.000925  -0.018414  -0.027568   0.752968   0.005697
    12  H   -0.035892   0.000058   0.310184  -0.002083   0.005697   0.392423
    13  C   -0.047744   0.000047  -0.006636   0.262984   0.002391   0.001063
    14  H    0.007099   0.000002   0.000036  -0.041425  -0.000243   0.000024
    15  H   -0.017608  -0.000012  -0.000633  -0.043010   0.010872  -0.000093
    16  H   -0.005978  -0.000019   0.006446  -0.045580  -0.002155   0.000621
             13         14         15         16
     1  H    0.000008  -0.000004   0.000000   0.000001
     2  C   -0.000027   0.000222  -0.000029  -0.000160
     3  C    0.002419  -0.000449  -0.000136   0.000899
     4  H    0.000074  -0.000001  -0.000001  -0.000010
     5  H   -0.000127  -0.000165   0.000084   0.000027
     6  H   -0.000131  -0.000001   0.000007   0.000014
     7  Si  -0.047744   0.007099  -0.017608  -0.005978
     8  H    0.000047   0.000002  -0.000012  -0.000019
     9  O   -0.006636   0.000036  -0.000633   0.006446
    10  O    0.262984  -0.041425  -0.043010  -0.045580
    11  H    0.002391  -0.000243   0.010872  -0.002155
    12  H    0.001063   0.000024  -0.000093   0.000621
    13  C    4.762286   0.404552   0.418105   0.411510
    14  H    0.404552   0.567463  -0.030358  -0.034837
    15  H    0.418105  -0.030358   0.594785  -0.049445
    16  H    0.411510  -0.034837  -0.049445   0.605617
 Mulliken atomic charges:
              1
     1  H    0.130449
     2  C   -0.397200
     3  C   -0.321679
     4  H    0.100479
     5  H    0.143786
     6  H    0.117739
     7  Si   0.495324
     8  H    0.115224
     9  O   -0.428111
    10  O   -0.349557
    11  H   -0.081033
    12  H    0.326749
    13  C   -0.210774
    14  H    0.128083
    15  H    0.117474
    16  H    0.113048
 Sum of Mulliken atomic charges =   0.00000
 Mulliken charges with hydrogens summed into heavy atoms:
              1
     2  C   -0.022486
     3  C   -0.088716
     7  Si   0.414291
     9  O   -0.101362
    10  O   -0.349557
    13  C    0.147831
 Sum of Mulliken charges with hydrogens summed into heavy atoms =   0.00000
 Electronic spatial extent (au):  <R**2>=            849.3907
 Charge=              0.0000 electrons
 Dipole moment (field-independent basis, Debye):
    X=             -0.2661    Y=             -0.1559    Z=             -1.3094  Tot=              1.3452
 Quadrupole moment (field-independent basis, Debye-Ang):
   XX=            -41.6061   YY=            -48.4186   ZZ=            -42.8658
   XY=             -1.5230   XZ=             -0.1640   YZ=             -1.7690
 Traceless Quadrupole moment (field-independent basis, Debye-Ang):
   XX=              2.6908   YY=             -4.1218   ZZ=              1.4310
   XY=             -1.5230   XZ=             -0.1640   YZ=             -1.7690
 Octapole moment (field-independent basis, Debye-Ang**2):
  XXX=             14.5520  YYY=             -3.8098  ZZZ=            -12.1533  XYY=             -0.3006
  XXY=             -1.5161  XXZ=             -1.2688  XZZ=              0.4963  YZZ=              4.1957
  YYZ=             -2.8615  XYZ=              1.5645
 Hexadecapole moment (field-independent basis, Debye-Ang**3):
 XXXX=           -711.1845 YYYY=           -269.8733 ZZZZ=           -157.5860 XXXY=            -12.2072
 XXXZ=             -5.2030 YYYX=            -11.5020 YYYZ=             -5.8555 ZZZX=             -2.1555
 ZZZY=            -20.8583 XXYY=           -159.9187 XXZZ=           -151.2415 YYZZ=            -65.9279
 XXYZ=             -2.1517 YYXZ=             -1.8795 ZZXY=             -4.7708
 N-N= 3.357159160114D+02 E-N=-1.995828526063D+03  KE= 5.586779399338D+02
 1\1\GINC-TARSUS2\SP\RPBE1PBE\def2TZVP\C3H10O2Si1\RENATO\10-Aug-2018\0\
 \#SP PBE1PBE/Def2TZVP geom=connectivity\\Structure: 93\\0,1\H,0,0.,0.,
 0.\C,0,1.093,0.,0.\C,0,1.655,1.421,0.\H,0,1.41,-0.56,-0.885\H,0,1.424,
 -0.557,0.88\H,0,1.308,1.969,-0.883\Si,0,3.513,1.515,0.035\H,0,1.282,1.
 975,0.868\O,0,4.149,0.849,-1.133\O,0,3.968,0.824,1.454\H,0,4.029,2.906
 ,-0.04\H,0,3.91,-0.063,-1.307\C,0,5.301,0.766,1.905\H,0,5.308,0.322,2.
 902\H,0,5.747,1.766,1.967\H,0,5.921,0.153,1.244\\Version=EM64L-G09RevC
 .01\State=1-A\HF=-560.0410444\RMSD=3.513e-09\Dipole=-0.0252237,-0.5173
 948,-0.1084682\Quadrupole=0.7061479,-0.0475065,-0.6586414,-1.2112441,2
 .1071533,1.9785359\PG=C01 [X(C3H10O2Si1)]\\@


 THERE IS NO SUBJECT, HOWEVER COMPLEX,
 WHICH, IF STUDIED WITH PATIENCE AND INTELLIGIENCE
 WILL NOT BECOME
 MORE COMPLEX
                        QUOTED BY D. GORDON ROHMAN
 Job cpu time:  0 days  0 hours  3 minutes 18.6 seconds.
 File lengths (MBytes):  RWF=     40 Int=      0 D2E=      0 Chk=      3 Scr=      1
 Normal termination of Gaussian 09 at Fri Aug 10 06:40:58 2018.
