 Entering Gaussian System, Link 0=g09
 Initial command:
 /usr/local/gaussian09/g09/l1.exe /scratch/renato/Gau-2340.inp -scrdir=/scratch/renato/
 Entering Link 1 = /usr/local/gaussian09/g09/l1.exe PID=      2342.
  
 Copyright (c) 1988,1990,1992,1993,1995,1998,2003,2009,2011,
            Gaussian, Inc.  All Rights Reserved.
  
 This is part of the Gaussian(R) 09 program.  It is based on
 the Gaussian(R) 03 system (copyright 2003, Gaussian, Inc.),
 the Gaussian(R) 98 system (copyright 1998, Gaussian, Inc.),
 the Gaussian(R) 94 system (copyright 1995, Gaussian, Inc.),
 the Gaussian 92(TM) system (copyright 1992, Gaussian, Inc.),
 the Gaussian 90(TM) system (copyright 1990, Gaussian, Inc.),
 the Gaussian 88(TM) system (copyright 1988, Gaussian, Inc.),
 the Gaussian 86(TM) system (copyright 1986, Carnegie Mellon
 University), and the Gaussian 82(TM) system (copyright 1983,
 Carnegie Mellon University). Gaussian is a federally registered
 trademark of Gaussian, Inc.
  
 This software contains proprietary and confidential information,
 including trade secrets, belonging to Gaussian, Inc.
  
 This software is provided under written license and may be
 used, copied, transmitted, or stored only in accord with that
 written license.
  
 The following legend is applicable only to US Government
 contracts under FAR:
  
                    RESTRICTED RIGHTS LEGEND
  
 Use, reproduction and disclosure by the US Government is
 subject to restrictions as set forth in subparagraphs (a)
 and (c) of the Commercial Computer Software - Restricted
 Rights clause in FAR 52.227-19.
  
 Gaussian, Inc.
 340 Quinnipiac St., Bldg. 40, Wallingford CT 06492
  
  
 ---------------------------------------------------------------
 Warning -- This program may not be used in any manner that
 competes with the business of Gaussian, Inc. or will provide
 assistance to any competitor of Gaussian, Inc.  The licensee
 of this program is prohibited from giving any competitor of
 Gaussian, Inc. access to this program.  By using this program,
 the user acknowledges that Gaussian, Inc. is engaged in the
 business of creating and licensing software in the field of
 computational chemistry and represents and warrants to the
 licensee that it is not a competitor of Gaussian, Inc. and that
 it will not use this program in any manner prohibited above.
 ---------------------------------------------------------------
  

 Cite this work as:
 Gaussian 09, Revision C.01,
 M. J. Frisch, G. W. Trucks, H. B. Schlegel, G. E. Scuseria, 
 M. A. Robb, J. R. Cheeseman, G. Scalmani, V. Barone, B. Mennucci, 
 G. A. Petersson, H. Nakatsuji, M. Caricato, X. Li, H. P. Hratchian, 
 A. F. Izmaylov, J. Bloino, G. Zheng, J. L. Sonnenberg, M. Hada, 
 M. Ehara, K. Toyota, R. Fukuda, J. Hasegawa, M. Ishida, T. Nakajima, 
 Y. Honda, O. Kitao, H. Nakai, T. Vreven, J. A. Montgomery, Jr., 
 J. E. Peralta, F. Ogliaro, M. Bearpark, J. J. Heyd, E. Brothers, 
 K. N. Kudin, V. N. Staroverov, T. Keith, R. Kobayashi, J. Normand, 
 K. Raghavachari, A. Rendell, J. C. Burant, S. S. Iyengar, J. Tomasi, 
 M. Cossi, N. Rega, J. M. Millam, M. Klene, J. E. Knox, J. B. Cross, 
 V. Bakken, C. Adamo, J. Jaramillo, R. Gomperts, R. E. Stratmann, 
 O. Yazyev, A. J. Austin, R. Cammi, C. Pomelli, J. W. Ochterski, 
 R. L. Martin, K. Morokuma, V. G. Zakrzewski, G. A. Voth, 
 P. Salvador, J. J. Dannenberg, S. Dapprich, A. D. Daniels, 
 O. Farkas, J. B. Foresman, J. V. Ortiz, J. Cioslowski, 
 and D. J. Fox, Gaussian, Inc., Wallingford CT, 2010.
 
 ******************************************
 Gaussian 09:  EM64L-G09RevC.01 23-Sep-2011
                 8-Aug-2018 
 ******************************************
 %nproc=2
 Will use up to    2 processors via shared memory.
 %mem=256MB
 %RWF=a13.rwf
 %chk=a130
 %NoSave
 --------------------------------------
 #SP PBE1PBE/Def2TZVP geom=connectivity
 --------------------------------------
 1/38=1,57=2/1;
 2/12=2,17=6,18=5,40=1/2;
 3/5=44,7=101,11=2,16=1,25=1,30=1,74=-13/1,2,3;
 4//1;
 5/5=2,38=5/2;
 6/7=2,8=2,9=2,10=2,28=1/1;
 99/5=1,9=1/99;
 ------------
 Structure: 0
 ------------
 Charge =  0 Multiplicity = 1
 Symbolic Z-Matrix:
 H                     0.        0.        0. 
 C                     1.093     0.        0. 
 C                     1.655     1.421     0. 
 H                     1.41     -0.56     -0.885 
 H                     1.424    -0.557     0.88 
 H                     1.308     1.969    -0.883 
 Si                    3.513     1.515     0.035 
 H                     1.282     1.975     0.868 
 O                     3.592     0.678    -1.383 
 O                     3.968     0.824     1.454 
 H                     4.029     2.906    -0.04 
 H                     3.137    -0.164    -1.426 
 C                     5.301     0.766     1.905 
 H                     5.308     0.322     2.902 
 H                     5.747     1.766     1.967 
 H                     5.921     0.153     1.244 
 
                          Input orientation:                          
 ---------------------------------------------------------------------
 Center     Atomic      Atomic             Coordinates (Angstroms)
 Number     Number       Type             X           Y           Z
 ---------------------------------------------------------------------
      1          1           0        0.000000    0.000000    0.000000
      2          6           0        1.093000    0.000000    0.000000
      3          6           0        1.655000    1.421000    0.000000
      4          1           0        1.410000   -0.560000   -0.885000
      5          1           0        1.424000   -0.557000    0.880000
      6          1           0        1.308000    1.969000   -0.883000
      7         14           0        3.513000    1.515000    0.035000
      8          1           0        1.282000    1.975000    0.868000
      9          8           0        3.592000    0.678000   -1.383000
     10          8           0        3.968000    0.824000    1.454000
     11          1           0        4.029000    2.906000   -0.040000
     12          1           0        3.137000   -0.164000   -1.426000
     13          6           0        5.301000    0.766000    1.905000
     14          1           0        5.308000    0.322000    2.902000
     15          1           0        5.747000    1.766000    1.967000
     16          1           0        5.921000    0.153000    1.244000
 ---------------------------------------------------------------------
                    Distance matrix (angstroms):
                    1          2          3          4          5
     1  H    0.000000
     2  C    1.093000   0.000000
     3  C    2.181345   1.528098   0.000000
     4  H    1.756395   1.094218   2.183486   0.000000
     5  H    1.764207   1.092799   2.177210   1.765058   0.000000
     6  H    2.523393   2.168611   1.095629   2.531057   3.082580
     7  Si   3.825914   2.855320   1.860706   3.094291   3.061230
     8  H    2.509497   2.165588   1.095203   3.084740   2.536007
     9  O    3.908304   2.935536   2.493333   2.557689   3.368474
    10  O    4.305591   3.325465   2.796515   3.732257   2.951029
    11  H    4.967824   4.131166   2.800482   4.425646   4.429988
    12  H    3.449803   2.497661   2.596541   1.852573   2.899389
    13  C    5.684750   4.682205   4.165497   4.968124   4.222805
    14  H    6.058065   5.127525   4.793101   5.505788   4.466160
    15  H    6.325809   5.352342   4.553304   5.688036   5.026552
    16  H    6.052205   4.988039   4.621051   5.038862   4.567232
                    6          7          8          9         10
     6  H    0.000000
     7  Si   2.431227   0.000000
     8  H    1.751203   2.425459   0.000000
     9  O    2.670831   1.648494   3.476393   0.000000
    10  O    3.721316   1.642579   2.980401   2.865530   0.000000
    11  H    2.998743   1.485517   3.039282   2.637916   2.563295
    12  H    2.861779   2.257197   3.644006   0.958039   3.156122
    13  C    5.016393   2.693482   4.323125   3.706665   1.408423
    14  H    5.747942   3.586776   4.803982   4.629537   2.035757
    15  H    5.279056   2.964183   4.603011   4.129197   2.077348
    16  H    5.394604   3.019137   4.998138   3.549788   2.075705
                   11         12         13         14         15
    11  H    0.000000
    12  H    3.484474   0.000000
    13  C    3.159210   4.079627   0.000000
    14  H    4.119255   4.866315   1.091418   0.000000
    15  H    2.877355   4.695684   1.096704   1.775410   0.000000
    16  H    3.578733   3.870406   1.094116   1.775752   1.776168
                   16
    16  H    0.000000
 Stoichiometry    C3H10O2Si
 Framework group  C1[X(C3H10O2Si)]
 Deg. of freedom    42
 Full point group                 C1      NOp   1
 Largest Abelian subgroup         C1      NOp   1
 Largest concise Abelian subgroup C1      NOp   1
                         Standard orientation:                         
 ---------------------------------------------------------------------
 Center     Atomic      Atomic             Coordinates (Angstroms)
 Number     Number       Type             X           Y           Z
 ---------------------------------------------------------------------
      1          1           0       -3.022208   -1.477934   -0.306808
      2          6           0       -2.075945   -0.976496   -0.525431
      3          6           0       -1.471479   -0.345589    0.728228
      4          1           0       -2.284766   -0.226832   -1.294659
      5          1           0       -1.401277   -1.717896   -0.960585
      6          1           0       -2.162227    0.388654    1.157363
      7         14           0        0.162156    0.501777    0.453579
      8          1           0       -1.320029   -1.108089    1.499672
      9          8           0       -0.538762    1.521982   -0.635196
     10          8           0        1.199083   -0.675462   -0.033203
     11          1           0        0.687291    1.167371    1.673407
     12          1           0       -1.023770    1.128679   -1.361775
     13          6           0        2.570904   -0.461992   -0.270246
     14          1           0        3.032193   -1.421685   -0.509821
     15          1           0        3.070609   -0.047465    0.613622
     16          1           0        2.730563    0.222616   -1.108644
 ---------------------------------------------------------------------
 Rotational constants (GHZ):      4.4452254      1.8596471      1.6079623
 Standard basis: def2TZVP (5D, 7F)
 There are   252 symmetry adapted basis functions of A   symmetry.
 Integral buffers will be    131072 words long.
 Raffenetti 2 integral format.
 Two-electron integral symmetry is turned on.
   252 basis functions,   404 primitive gaussians,   282 cartesian basis functions
    29 alpha electrons       29 beta electrons
       nuclear repulsion energy       332.0416451666 Hartrees.
 NAtoms=   16 NActive=   16 NUniq=   16 SFac= 1.00D+00 NAtFMM=   60 NAOKFM=F Big=F
 One-electron integrals computed using PRISM.
   1 Symmetry operations used in ECPInt.
 ECPInt:  NShTT=    5886 NPrTT=   17754 LenC2=    5779 LenP2D=   13948.
 LDataN:  DoStor=T MaxTD1= 6 Len=  172
 NBasis=   252 RedAO= T  NBF=   252
 NBsUse=   252 1.00D-06 NBFU=   252
 Harris functional with IExCor= 1009 diagonalized for initial guess.
 ExpMin= 7.01D-02 ExpMax= 4.48D+04 ExpMxC= 1.53D+03 IAcc=2 IRadAn=         4 AccDes= 0.00D+00
 HarFok:  IExCor= 1009 AccDes= 0.00D+00 IRadAn=         4 IDoV= 1
 ScaDFX=  1.000000  1.000000  1.000000  1.000000
 FoFCou: FMM=F IPFlag=           0 FMFlag=      100000 FMFlg1=           0
         NFxFlg=           0 DoJE=T BraDBF=F KetDBF=T FulRan=T
         Omega=  0.000000  0.000000  1.000000  0.000000  0.000000 ICntrl=     500 IOpCl=  0
         NMat0=    1 NMatS0=    1 NMatT0=    0 NMatD0=    1 NMtDS0=    0 NMtDT0=    0
         I1Cent=           4 NGrid=           0.
 Petite list used in FoFCou.
 Initial guess orbital symmetries:
       Occupied  (A) (A) (A) (A) (A) (A) (A) (A) (A) (A) (A) (A)
                 (A) (A) (A) (A) (A) (A) (A) (A) (A) (A) (A) (A)
                 (A) (A) (A) (A) (A)
       Virtual   (A) (A) (A) (A) (A) (A) (A) (A) (A) (A) (A) (A)
                 (A) (A) (A) (A) (A) (A) (A) (A) (A) (A) (A) (A)
                 (A) (A) (A) (A) (A) (A) (A) (A) (A) (A) (A) (A)
                 (A) (A) (A) (A) (A) (A) (A) (A) (A) (A) (A) (A)
                 (A) (A) (A) (A) (A) (A) (A) (A) (A) (A) (A) (A)
                 (A) (A) (A) (A) (A) (A) (A) (A) (A) (A) (A) (A)
                 (A) (A) (A) (A) (A) (A) (A) (A) (A) (A) (A) (A)
                 (A) (A) (A) (A) (A) (A) (A) (A) (A) (A) (A) (A)
                 (A) (A) (A) (A) (A) (A) (A) (A) (A) (A) (A) (A)
                 (A) (A) (A) (A) (A) (A) (A) (A) (A) (A) (A) (A)
                 (A) (A) (A) (A) (A) (A) (A) (A) (A) (A) (A) (A)
                 (A) (A) (A) (A) (A) (A) (A) (A) (A) (A) (A) (A)
                 (A) (A) (A) (A) (A) (A) (A) (A) (A) (A) (A) (A)
                 (A) (A) (A) (A) (A) (A) (A) (A) (A) (A) (A) (A)
                 (A) (A) (A) (A) (A) (A) (A) (A) (A) (A) (A) (A)
                 (A) (A) (A) (A) (A) (A) (A) (A) (A) (A) (A) (A)
                 (A) (A) (A) (A) (A) (A) (A) (A) (A) (A) (A) (A)
                 (A) (A) (A) (A) (A) (A) (A) (A) (A) (A) (A) (A)
                 (A) (A) (A) (A) (A) (A) (A)
 The electronic state of the initial guess is 1-A.
 Requested convergence on RMS density matrix=1.00D-08 within 128 cycles.
 Requested convergence on MAX density matrix=1.00D-06.
 Requested convergence on             energy=1.00D-06.
 No special actions if energy rises.
 Integral accuracy reduced to 1.0D-05 until final iterations.
 Initial convergence to 1.0D-05 achieved.  Increase integral accuracy.
 SCF Done:  E(RPBE1PBE) =  -560.037677860     A.U. after   13 cycles
             Convg  =    0.3156D-08             -V/T =  2.0031

 **********************************************************************

            Population analysis using the SCF density.

 **********************************************************************

 Orbital symmetries:
       Occupied  (A) (A) (A) (A) (A) (A) (A) (A) (A) (A) (A) (A)
                 (A) (A) (A) (A) (A) (A) (A) (A) (A) (A) (A) (A)
                 (A) (A) (A) (A) (A)
       Virtual   (A) (A) (A) (A) (A) (A) (A) (A) (A) (A) (A) (A)
                 (A) (A) (A) (A) (A) (A) (A) (A) (A) (A) (A) (A)
                 (A) (A) (A) (A) (A) (A) (A) (A) (A) (A) (A) (A)
                 (A) (A) (A) (A) (A) (A) (A) (A) (A) (A) (A) (A)
                 (A) (A) (A) (A) (A) (A) (A) (A) (A) (A) (A) (A)
                 (A) (A) (A) (A) (A) (A) (A) (A) (A) (A) (A) (A)
                 (A) (A) (A) (A) (A) (A) (A) (A) (A) (A) (A) (A)
                 (A) (A) (A) (A) (A) (A) (A) (A) (A) (A) (A) (A)
                 (A) (A) (A) (A) (A) (A) (A) (A) (A) (A) (A) (A)
                 (A) (A) (A) (A) (A) (A) (A) (A) (A) (A) (A) (A)
                 (A) (A) (A) (A) (A) (A) (A) (A) (A) (A) (A) (A)
                 (A) (A) (A) (A) (A) (A) (A) (A) (A) (A) (A) (A)
                 (A) (A) (A) (A) (A) (A) (A) (A) (A) (A) (A) (A)
                 (A) (A) (A) (A) (A) (A) (A) (A) (A) (A) (A) (A)
                 (A) (A) (A) (A) (A) (A) (A) (A) (A) (A) (A) (A)
                 (A) (A) (A) (A) (A) (A) (A) (A) (A) (A) (A) (A)
                 (A) (A) (A) (A) (A) (A) (A) (A) (A) (A) (A) (A)
                 (A) (A) (A) (A) (A) (A) (A) (A) (A) (A) (A) (A)
                 (A) (A) (A) (A) (A) (A) (A)
 The electronic state is 1-A.
 Alpha  occ. eigenvalues --  -66.25856 -19.21214 -19.19203 -10.27244 -10.21433
 Alpha  occ. eigenvalues --  -10.19105  -5.33501  -3.67023  -3.66957  -3.66725
 Alpha  occ. eigenvalues --   -1.05122  -1.02112  -0.77309  -0.71309  -0.63524
 Alpha  occ. eigenvalues --   -0.56268  -0.51856  -0.47633  -0.47263  -0.45851
 Alpha  occ. eigenvalues --   -0.43492  -0.41526  -0.38157  -0.37004  -0.36334
 Alpha  occ. eigenvalues --   -0.34819  -0.32692  -0.31044  -0.27588
 Alpha virt. eigenvalues --    0.01670   0.04749   0.05669   0.07726   0.09060
 Alpha virt. eigenvalues --    0.09254   0.11044   0.11653   0.11964   0.12974
 Alpha virt. eigenvalues --    0.13714   0.15056   0.16831   0.18313   0.20395
 Alpha virt. eigenvalues --    0.21850   0.22432   0.22616   0.25090   0.25282
 Alpha virt. eigenvalues --    0.26547   0.26891   0.28343   0.29789   0.31614
 Alpha virt. eigenvalues --    0.34418   0.35093   0.38370   0.40348   0.41332
 Alpha virt. eigenvalues --    0.41789   0.43066   0.43978   0.45174   0.45411
 Alpha virt. eigenvalues --    0.46426   0.47170   0.47702   0.48402   0.50174
 Alpha virt. eigenvalues --    0.51630   0.54670   0.56273   0.57960   0.58368
 Alpha virt. eigenvalues --    0.61564   0.65145   0.66343   0.67618   0.70081
 Alpha virt. eigenvalues --    0.72583   0.73295   0.76406   0.77162   0.80465
 Alpha virt. eigenvalues --    0.82567   0.84838   0.86434   0.90407   0.91771
 Alpha virt. eigenvalues --    0.94228   0.95399   0.97710   0.98779   0.99835
 Alpha virt. eigenvalues --    1.03246   1.04783   1.06453   1.10435   1.11197
 Alpha virt. eigenvalues --    1.13682   1.14495   1.17025   1.18680   1.19410
 Alpha virt. eigenvalues --    1.24612   1.31249   1.35956   1.38367   1.39594
 Alpha virt. eigenvalues --    1.43559   1.44944   1.47010   1.49078   1.51131
 Alpha virt. eigenvalues --    1.52455   1.53568   1.54203   1.57203   1.58704
 Alpha virt. eigenvalues --    1.60876   1.61994   1.64680   1.65451   1.65850
 Alpha virt. eigenvalues --    1.68778   1.73252   1.74014   1.76362   1.79458
 Alpha virt. eigenvalues --    1.80898   1.84200   1.86302   1.88651   1.92773
 Alpha virt. eigenvalues --    1.94444   1.95892   1.98257   2.02682   2.03044
 Alpha virt. eigenvalues --    2.05961   2.09295   2.11071   2.12531   2.15932
 Alpha virt. eigenvalues --    2.17657   2.21399   2.25157   2.29758   2.31365
 Alpha virt. eigenvalues --    2.32370   2.33995   2.34201   2.35800   2.36533
 Alpha virt. eigenvalues --    2.38914   2.41156   2.44632   2.47863   2.49844
 Alpha virt. eigenvalues --    2.51518   2.54637   2.55352   2.55736   2.59018
 Alpha virt. eigenvalues --    2.60083   2.63718   2.66317   2.69709   2.71608
 Alpha virt. eigenvalues --    2.73467   2.79370   2.81422   2.82088   2.85113
 Alpha virt. eigenvalues --    2.85837   2.94293   2.97273   2.98563   3.02803
 Alpha virt. eigenvalues --    3.06117   3.09926   3.11542   3.13951   3.16017
 Alpha virt. eigenvalues --    3.21211   3.23256   3.24548   3.30063   3.31231
 Alpha virt. eigenvalues --    3.32424   3.33674   3.38191   3.41196   3.43349
 Alpha virt. eigenvalues --    3.44062   3.47308   3.49655   3.52405   3.57107
 Alpha virt. eigenvalues --    3.58705   3.60503   3.64346   3.66851   3.78064
 Alpha virt. eigenvalues --    3.81960   3.90078   3.94888   3.97945   4.04431
 Alpha virt. eigenvalues --    4.18075   4.23737   4.25266   4.35201   4.36009
 Alpha virt. eigenvalues --    4.42452   4.48283   4.53444   4.57729   4.80914
 Alpha virt. eigenvalues --    5.17029   5.17791   5.18232   5.19645   5.27051
 Alpha virt. eigenvalues --    5.28797   5.38467   5.41623   5.46167   5.52409
 Alpha virt. eigenvalues --    5.79336   5.85118   6.02578   6.24817   6.43658
 Alpha virt. eigenvalues --    6.47406   6.56044   6.57150   6.58943   6.61674
 Alpha virt. eigenvalues --    6.69017   6.76166   6.83446   6.96067   7.08411
 Alpha virt. eigenvalues --    7.16598   7.30484  11.96974  22.37730  22.40977
 Alpha virt. eigenvalues --   22.47910  43.68926  43.95293
          Condensed to atoms (all electrons):
              1          2          3          4          5          6
     1  H    0.547660   0.407424  -0.032968  -0.022999  -0.023468  -0.006592
     2  C    0.407424   4.952637   0.307411   0.394250   0.410978  -0.025463
     3  C   -0.032968   0.307411   5.041531  -0.047710  -0.039909   0.389003
     4  H   -0.022999   0.394250  -0.047710   0.621143  -0.030424  -0.006047
     5  H   -0.023468   0.410978  -0.039909  -0.030424   0.537045   0.007694
     6  H   -0.006592  -0.025463   0.389003  -0.006047   0.007694   0.584955
     7  Si   0.008496  -0.020307   0.467804  -0.014167  -0.007877  -0.029227
     8  H   -0.007087  -0.025729   0.350628   0.011239  -0.003657  -0.027711
     9  O    0.000646  -0.012583  -0.063612   0.004249  -0.000394  -0.005082
    10  O    0.000019  -0.005051  -0.029810   0.001223   0.007306   0.001233
    11  H   -0.000059   0.001737  -0.032612   0.000184   0.000413   0.001261
    12  H   -0.000151   0.006142  -0.005046   0.005845  -0.000241   0.000382
    13  C    0.000010  -0.000325   0.003419   0.000070  -0.000084  -0.000163
    14  H   -0.000004   0.000189  -0.000513   0.000003  -0.000138   0.000000
    15  H    0.000002  -0.000050   0.000084   0.000006   0.000079  -0.000006
    16  H   -0.000001   0.000008   0.000606  -0.000057   0.000000   0.000022
              7          8          9         10         11         12
     1  H    0.008496  -0.007087   0.000646   0.000019  -0.000059  -0.000151
     2  C   -0.020307  -0.025729  -0.012583  -0.005051   0.001737   0.006142
     3  C    0.467804   0.350628  -0.063612  -0.029810  -0.032612  -0.005046
     4  H   -0.014167   0.011239   0.004249   0.001223   0.000184   0.005845
     5  H   -0.007877  -0.003657  -0.000394   0.007306   0.000413  -0.000241
     6  H   -0.029227  -0.027711  -0.005082   0.001233   0.001261   0.000382
     7  Si  11.905022  -0.033753   0.432074   0.439207   0.391840  -0.029691
     8  H   -0.033753   0.629241   0.007539   0.003277   0.001623  -0.000328
     9  O    0.432074   0.007539   7.875260  -0.024983  -0.007347   0.311327
    10  O    0.439207   0.003277  -0.024983   7.835483  -0.024072  -0.001686
    11  H    0.391840   0.001623  -0.007347  -0.024072   0.693784   0.002210
    12  H   -0.029691  -0.000328   0.311327  -0.001686   0.002210   0.397634
    13  C   -0.045383   0.000039  -0.002205   0.254152   0.001425   0.000020
    14  H    0.007222   0.000026  -0.000015  -0.041324  -0.000208   0.000008
    15  H   -0.019376  -0.000008  -0.000380  -0.041068   0.008838  -0.000044
    16  H   -0.003647  -0.000046   0.002842  -0.043455  -0.001828   0.000334
             13         14         15         16
     1  H    0.000010  -0.000004   0.000002  -0.000001
     2  C   -0.000325   0.000189  -0.000050   0.000008
     3  C    0.003419  -0.000513   0.000084   0.000606
     4  H    0.000070   0.000003   0.000006  -0.000057
     5  H   -0.000084  -0.000138   0.000079   0.000000
     6  H   -0.000163   0.000000  -0.000006   0.000022
     7  Si  -0.045383   0.007222  -0.019376  -0.003647
     8  H    0.000039   0.000026  -0.000008  -0.000046
     9  O   -0.002205  -0.000015  -0.000380   0.002842
    10  O    0.254152  -0.041324  -0.041068  -0.043455
    11  H    0.001425  -0.000208   0.008838  -0.001828
    12  H    0.000020   0.000008  -0.000044   0.000334
    13  C    4.777518   0.404369   0.417839   0.413385
    14  H    0.404369   0.558188  -0.028515  -0.031846
    15  H    0.417839  -0.028515   0.591687  -0.049558
    16  H    0.413385  -0.031846  -0.049558   0.588070
 Mulliken atomic charges:
              1
     1  H    0.129073
     2  C   -0.391269
     3  C   -0.308307
     4  H    0.083191
     5  H    0.142676
     6  H    0.115740
     7  Si   0.551763
     8  H    0.094707
     9  O   -0.517335
    10  O   -0.330452
    11  H   -0.037189
    12  H    0.313286
    13  C   -0.224086
    14  H    0.132560
    15  H    0.120471
    16  H    0.125171
 Sum of Mulliken atomic charges =   0.00000
 Mulliken charges with hydrogens summed into heavy atoms:
              1
     2  C   -0.036329
     3  C   -0.097860
     7  Si   0.514575
     9  O   -0.204049
    10  O   -0.330452
    13  C    0.154115
 Sum of Mulliken charges with hydrogens summed into heavy atoms =   0.00000
 Electronic spatial extent (au):  <R**2>=            855.9985
 Charge=              0.0000 electrons
 Dipole moment (field-independent basis, Debye):
    X=              0.8870    Y=             -0.5460    Z=             -0.4851  Tot=              1.1490
 Quadrupole moment (field-independent basis, Debye-Ang):
   XX=            -40.1630   YY=            -49.6239   ZZ=            -43.6234
   XY=              0.3261   XZ=              0.7587   YZ=              0.3843
 Traceless Quadrupole moment (field-independent basis, Debye-Ang):
   XX=              4.3071   YY=             -5.1538   ZZ=              0.8467
   XY=              0.3261   XZ=              0.7587   YZ=              0.3843
 Octapole moment (field-independent basis, Debye-Ang**2):
  XXX=             15.3633  YYY=             -6.6924  ZZZ=             -8.3889  XYY=              3.3813
  XXY=              0.0329  XXZ=             -4.8524  XZZ=             -0.6261  YZZ=              2.6206
  YYZ=              0.3471  XYZ=              1.4652
 Hexadecapole moment (field-independent basis, Debye-Ang**3):
 XXXX=           -704.7367 YYYY=           -270.4565 ZZZZ=           -164.2653 XXXY=            -18.0471
 XXXZ=             -2.3464 YYYX=             -7.4197 YYYZ=              1.3487 ZZZX=              5.3892
 ZZZY=            -12.0661 XXYY=           -160.2138 XXZZ=           -149.1703 YYZZ=            -70.4253
 XXYZ=             -2.7885 YYXZ=             -2.0082 ZZXY=             -8.6666
 N-N= 3.320416451666D+02 E-N=-1.988063974611D+03  KE= 5.582911509916D+02
 1\1\GINC-TARSUS4\SP\RPBE1PBE\def2TZVP\C3H10O2Si1\RENATO\08-Aug-2018\0\
 \#SP PBE1PBE/Def2TZVP geom=connectivity\\Structure: 0\\0,1\H,0,0.,0.,0
 .\C,0,1.093,0.,0.\C,0,1.655,1.421,0.\H,0,1.41,-0.56,-0.885\H,0,1.424,-
 0.557,0.88\H,0,1.308,1.969,-0.883\Si,0,3.513,1.515,0.035\H,0,1.282,1.9
 75,0.868\O,0,3.592,0.678,-1.383\O,0,3.968,0.824,1.454\H,0,4.029,2.906,
 -0.04\H,0,3.137,-0.164,-1.426\C,0,5.301,0.766,1.905\H,0,5.308,0.322,2.
 902\H,0,5.747,1.766,1.967\H,0,5.921,0.153,1.244\\Version=EM64L-G09RevC
 .01\State=1-A\HF=-560.0376779\RMSD=3.156e-09\Dipole=0.2417549,-0.21092
 33,0.3184577\Quadrupole=1.5636321,0.584508,-2.1481401,0.2829142,2.8234
 559,1.171523\PG=C01 [X(C3H10O2Si1)]\\@


 IF YOU'RE NOT PART OF THE SOLUTION,
 THEN YOU'RE PART OF THE PRECIPITATE.
 Job cpu time:  0 days  0 hours  9 minutes  8.2 seconds.
 File lengths (MBytes):  RWF=     40 Int=      0 D2E=      0 Chk=      3 Scr=      1
 Normal termination of Gaussian 09 at Wed Aug  8 10:00:55 2018.
