 Entering Gaussian System, Link 0=g09
 Initial command:
 /usr/local/gaussian09/g09/l1.exe /scratch/renato/Gau-3530.inp -scrdir=/scratch/renato/
 Entering Link 1 = /usr/local/gaussian09/g09/l1.exe PID=      3532.
  
 Copyright (c) 1988,1990,1992,1993,1995,1998,2003,2009,2011,
            Gaussian, Inc.  All Rights Reserved.
  
 This is part of the Gaussian(R) 09 program.  It is based on
 the Gaussian(R) 03 system (copyright 2003, Gaussian, Inc.),
 the Gaussian(R) 98 system (copyright 1998, Gaussian, Inc.),
 the Gaussian(R) 94 system (copyright 1995, Gaussian, Inc.),
 the Gaussian 92(TM) system (copyright 1992, Gaussian, Inc.),
 the Gaussian 90(TM) system (copyright 1990, Gaussian, Inc.),
 the Gaussian 88(TM) system (copyright 1988, Gaussian, Inc.),
 the Gaussian 86(TM) system (copyright 1986, Carnegie Mellon
 University), and the Gaussian 82(TM) system (copyright 1983,
 Carnegie Mellon University). Gaussian is a federally registered
 trademark of Gaussian, Inc.
  
 This software contains proprietary and confidential information,
 including trade secrets, belonging to Gaussian, Inc.
  
 This software is provided under written license and may be
 used, copied, transmitted, or stored only in accord with that
 written license.
  
 The following legend is applicable only to US Government
 contracts under FAR:
  
                    RESTRICTED RIGHTS LEGEND
  
 Use, reproduction and disclosure by the US Government is
 subject to restrictions as set forth in subparagraphs (a)
 and (c) of the Commercial Computer Software - Restricted
 Rights clause in FAR 52.227-19.
  
 Gaussian, Inc.
 340 Quinnipiac St., Bldg. 40, Wallingford CT 06492
  
  
 ---------------------------------------------------------------
 Warning -- This program may not be used in any manner that
 competes with the business of Gaussian, Inc. or will provide
 assistance to any competitor of Gaussian, Inc.  The licensee
 of this program is prohibited from giving any competitor of
 Gaussian, Inc. access to this program.  By using this program,
 the user acknowledges that Gaussian, Inc. is engaged in the
 business of creating and licensing software in the field of
 computational chemistry and represents and warrants to the
 licensee that it is not a competitor of Gaussian, Inc. and that
 it will not use this program in any manner prohibited above.
 ---------------------------------------------------------------
  

 Cite this work as:
 Gaussian 09, Revision C.01,
 M. J. Frisch, G. W. Trucks, H. B. Schlegel, G. E. Scuseria, 
 M. A. Robb, J. R. Cheeseman, G. Scalmani, V. Barone, B. Mennucci, 
 G. A. Petersson, H. Nakatsuji, M. Caricato, X. Li, H. P. Hratchian, 
 A. F. Izmaylov, J. Bloino, G. Zheng, J. L. Sonnenberg, M. Hada, 
 M. Ehara, K. Toyota, R. Fukuda, J. Hasegawa, M. Ishida, T. Nakajima, 
 Y. Honda, O. Kitao, H. Nakai, T. Vreven, J. A. Montgomery, Jr., 
 J. E. Peralta, F. Ogliaro, M. Bearpark, J. J. Heyd, E. Brothers, 
 K. N. Kudin, V. N. Staroverov, T. Keith, R. Kobayashi, J. Normand, 
 K. Raghavachari, A. Rendell, J. C. Burant, S. S. Iyengar, J. Tomasi, 
 M. Cossi, N. Rega, J. M. Millam, M. Klene, J. E. Knox, J. B. Cross, 
 V. Bakken, C. Adamo, J. Jaramillo, R. Gomperts, R. E. Stratmann, 
 O. Yazyev, A. J. Austin, R. Cammi, C. Pomelli, J. W. Ochterski, 
 R. L. Martin, K. Morokuma, V. G. Zakrzewski, G. A. Voth, 
 P. Salvador, J. J. Dannenberg, S. Dapprich, A. D. Daniels, 
 O. Farkas, J. B. Foresman, J. V. Ortiz, J. Cioslowski, 
 and D. J. Fox, Gaussian, Inc., Wallingford CT, 2010.
 
 ******************************************
 Gaussian 09:  EM64L-G09RevC.01 23-Sep-2011
                 8-Aug-2018 
 ******************************************
 %nproc=2
 Will use up to    2 processors via shared memory.
 %mem=256MB
 %RWF=a13.rwf
 %chk=a13109
 %NoSave
 --------------------------------------
 #SP PBE1PBE/Def2TZVP geom=connectivity
 --------------------------------------
 1/38=1,57=2/1;
 2/12=2,17=6,18=5,40=1/2;
 3/5=44,7=101,11=2,16=1,25=1,30=1,74=-13/1,2,3;
 4//1;
 5/5=2,38=5/2;
 6/7=2,8=2,9=2,10=2,28=1/1;
 99/5=1,9=1/99;
 --------------
 Structure: 109
 --------------
 Charge =  0 Multiplicity = 1
 Symbolic Z-Matrix:
 H                     0.        0.        0. 
 C                     1.093     0.        0. 
 C                     1.655     1.421     0. 
 H                     1.41     -0.56     -0.885 
 H                     1.424    -0.557     0.88 
 H                     1.308     1.969    -0.883 
 Si                    3.513     1.515     0.035 
 H                     1.282     1.975     0.868 
 O                     4.552     0.894    -1.084 
 O                     3.968     0.824     1.454 
 H                     4.029     2.906    -0.04 
 H                     4.466    -0.036    -1.299 
 C                     5.301     0.766     1.905 
 H                     5.308     0.322     2.902 
 H                     5.747     1.766     1.967 
 H                     5.921     0.153     1.244 
 
                          Input orientation:                          
 ---------------------------------------------------------------------
 Center     Atomic      Atomic             Coordinates (Angstroms)
 Number     Number       Type             X           Y           Z
 ---------------------------------------------------------------------
      1          1           0        0.000000    0.000000    0.000000
      2          6           0        1.093000    0.000000    0.000000
      3          6           0        1.655000    1.421000    0.000000
      4          1           0        1.410000   -0.560000   -0.885000
      5          1           0        1.424000   -0.557000    0.880000
      6          1           0        1.308000    1.969000   -0.883000
      7         14           0        3.513000    1.515000    0.035000
      8          1           0        1.282000    1.975000    0.868000
      9          8           0        4.552000    0.894000   -1.084000
     10          8           0        3.968000    0.824000    1.454000
     11          1           0        4.029000    2.906000   -0.040000
     12          1           0        4.466000   -0.036000   -1.299000
     13          6           0        5.301000    0.766000    1.905000
     14          1           0        5.308000    0.322000    2.902000
     15          1           0        5.747000    1.766000    1.967000
     16          1           0        5.921000    0.153000    1.244000
 ---------------------------------------------------------------------
                    Distance matrix (angstroms):
                    1          2          3          4          5
     1  H    0.000000
     2  C    1.093000   0.000000
     3  C    2.181345   1.528098   0.000000
     4  H    1.756395   1.094218   2.183486   0.000000
     5  H    1.764207   1.092799   2.177210   1.765058   0.000000
     6  H    2.523393   2.168611   1.095629   2.531057   3.082580
     7  Si   3.825914   2.855320   1.860706   3.094291   3.061230
     8  H    2.509497   2.165588   1.095203   3.084740   2.536007
     9  O    4.763927   3.733493   3.137737   3.467835   3.968259
    10  O    4.305591   3.325465   2.796515   3.732257   2.951029
    11  H    4.967824   4.131166   2.800482   4.425646   4.429988
    12  H    4.651221   3.614668   3.422276   3.128116   3.777995
    13  C    5.684750   4.682205   4.165497   4.968124   4.222805
    14  H    6.058065   5.127525   4.793101   5.505788   4.466160
    15  H    6.325809   5.352342   4.553304   5.688036   5.026552
    16  H    6.052205   4.988039   4.621051   5.038862   4.567232
                    6          7          8          9         10
     6  H    0.000000
     7  Si   2.431227   0.000000
     8  H    1.751203   2.425459   0.000000
     9  O    3.423385   1.648430   3.958758   0.000000
    10  O    3.721316   1.642579   2.980401   2.605264   0.000000
    11  H    2.998743   1.485517   3.039282   2.326287   2.563295
    12  H    3.763781   2.256849   4.344867   0.958395   2.926878
    13  C    5.016393   2.693482   4.323125   3.084073   1.408423
    14  H    5.747942   3.586776   4.803982   4.097184   2.035757
    15  H    5.279056   2.964183   4.603011   3.390724   2.077348
    16  H    5.394604   3.019137   4.998138   2.800505   2.075705
                   11         12         13         14         15
    11  H    0.000000
    12  H    3.229770   0.000000
    13  C    3.159210   3.406765   0.000000
    14  H    4.119255   4.299480   1.091418   0.000000
    15  H    2.877355   3.943973   1.096704   1.775410   0.000000
    16  H    3.578733   2.935915   1.094116   1.775752   1.776168
                   16
    16  H    0.000000
 Stoichiometry    C3H10O2Si
 Framework group  C1[X(C3H10O2Si)]
 Deg. of freedom    42
 Full point group                 C1      NOp   1
 Largest Abelian subgroup         C1      NOp   1
 Largest concise Abelian subgroup C1      NOp   1
                         Standard orientation:                         
 ---------------------------------------------------------------------
 Center     Atomic      Atomic             Coordinates (Angstroms)
 Number     Number       Type             X           Y           Z
 ---------------------------------------------------------------------
      1          1           0       -3.355758   -1.004674   -0.508432
      2          6           0       -2.332313   -0.655876   -0.668274
      3          6           0       -1.708386   -0.132897    0.624898
      4          1           0       -2.378632    0.120826   -1.437626
      5          1           0       -1.757742   -1.491325   -1.075832
      6          1           0       -2.299589    0.698019    1.025472
      7         14           0        0.049887    0.450688    0.451320
      8          1           0       -1.720767   -0.913342    1.393156
      9          8           0        0.594877    1.657466   -0.530512
     10          8           0        0.916897   -0.871504    0.006156
     11          1           0        0.602862    1.020458    1.706845
     12          1           0        0.376404    1.602138   -1.462032
     13          6           0        2.316332   -0.873413   -0.152693
     14          1           0        2.635565   -1.892143   -0.379572
     15          1           0        2.824041   -0.546074    0.762644
     16          1           0        2.627195   -0.218096   -0.971846
 ---------------------------------------------------------------------
 Rotational constants (GHZ):      4.1342068      1.8817146      1.5633635
 Standard basis: def2TZVP (5D, 7F)
 There are   252 symmetry adapted basis functions of A   symmetry.
 Integral buffers will be    131072 words long.
 Raffenetti 2 integral format.
 Two-electron integral symmetry is turned on.
   252 basis functions,   404 primitive gaussians,   282 cartesian basis functions
    29 alpha electrons       29 beta electrons
       nuclear repulsion energy       329.6207921653 Hartrees.
 NAtoms=   16 NActive=   16 NUniq=   16 SFac= 1.00D+00 NAtFMM=   60 NAOKFM=F Big=F
 One-electron integrals computed using PRISM.
   1 Symmetry operations used in ECPInt.
 ECPInt:  NShTT=    5886 NPrTT=   17754 LenC2=    5775 LenP2D=   13909.
 LDataN:  DoStor=T MaxTD1= 6 Len=  172
 NBasis=   252 RedAO= T  NBF=   252
 NBsUse=   252 1.00D-06 NBFU=   252
 Harris functional with IExCor= 1009 diagonalized for initial guess.
 ExpMin= 7.01D-02 ExpMax= 4.48D+04 ExpMxC= 1.53D+03 IAcc=2 IRadAn=         4 AccDes= 0.00D+00
 HarFok:  IExCor= 1009 AccDes= 0.00D+00 IRadAn=         4 IDoV= 1
 ScaDFX=  1.000000  1.000000  1.000000  1.000000
 FoFCou: FMM=F IPFlag=           0 FMFlag=      100000 FMFlg1=           0
         NFxFlg=           0 DoJE=T BraDBF=F KetDBF=T FulRan=T
         Omega=  0.000000  0.000000  1.000000  0.000000  0.000000 ICntrl=     500 IOpCl=  0
         NMat0=    1 NMatS0=    1 NMatT0=    0 NMatD0=    1 NMtDS0=    0 NMtDT0=    0
         I1Cent=           4 NGrid=           0.
 Petite list used in FoFCou.
 Initial guess orbital symmetries:
       Occupied  (A) (A) (A) (A) (A) (A) (A) (A) (A) (A) (A) (A)
                 (A) (A) (A) (A) (A) (A) (A) (A) (A) (A) (A) (A)
                 (A) (A) (A) (A) (A)
       Virtual   (A) (A) (A) (A) (A) (A) (A) (A) (A) (A) (A) (A)
                 (A) (A) (A) (A) (A) (A) (A) (A) (A) (A) (A) (A)
                 (A) (A) (A) (A) (A) (A) (A) (A) (A) (A) (A) (A)
                 (A) (A) (A) (A) (A) (A) (A) (A) (A) (A) (A) (A)
                 (A) (A) (A) (A) (A) (A) (A) (A) (A) (A) (A) (A)
                 (A) (A) (A) (A) (A) (A) (A) (A) (A) (A) (A) (A)
                 (A) (A) (A) (A) (A) (A) (A) (A) (A) (A) (A) (A)
                 (A) (A) (A) (A) (A) (A) (A) (A) (A) (A) (A) (A)
                 (A) (A) (A) (A) (A) (A) (A) (A) (A) (A) (A) (A)
                 (A) (A) (A) (A) (A) (A) (A) (A) (A) (A) (A) (A)
                 (A) (A) (A) (A) (A) (A) (A) (A) (A) (A) (A) (A)
                 (A) (A) (A) (A) (A) (A) (A) (A) (A) (A) (A) (A)
                 (A) (A) (A) (A) (A) (A) (A) (A) (A) (A) (A) (A)
                 (A) (A) (A) (A) (A) (A) (A) (A) (A) (A) (A) (A)
                 (A) (A) (A) (A) (A) (A) (A) (A) (A) (A) (A) (A)
                 (A) (A) (A) (A) (A) (A) (A) (A) (A) (A) (A) (A)
                 (A) (A) (A) (A) (A) (A) (A) (A) (A) (A) (A) (A)
                 (A) (A) (A) (A) (A) (A) (A) (A) (A) (A) (A) (A)
                 (A) (A) (A) (A) (A) (A) (A)
 The electronic state of the initial guess is 1-A.
 Requested convergence on RMS density matrix=1.00D-08 within 128 cycles.
 Requested convergence on MAX density matrix=1.00D-06.
 Requested convergence on             energy=1.00D-06.
 No special actions if energy rises.
 Integral accuracy reduced to 1.0D-05 until final iterations.
 Initial convergence to 1.0D-05 achieved.  Increase integral accuracy.
 SCF Done:  E(RPBE1PBE) =  -560.054337841     A.U. after   12 cycles
             Convg  =    0.8207D-08             -V/T =  2.0032

 **********************************************************************

            Population analysis using the SCF density.

 **********************************************************************

 Orbital symmetries:
       Occupied  (A) (A) (A) (A) (A) (A) (A) (A) (A) (A) (A) (A)
                 (A) (A) (A) (A) (A) (A) (A) (A) (A) (A) (A) (A)
                 (A) (A) (A) (A) (A)
       Virtual   (A) (A) (A) (A) (A) (A) (A) (A) (A) (A) (A) (A)
                 (A) (A) (A) (A) (A) (A) (A) (A) (A) (A) (A) (A)
                 (A) (A) (A) (A) (A) (A) (A) (A) (A) (A) (A) (A)
                 (A) (A) (A) (A) (A) (A) (A) (A) (A) (A) (A) (A)
                 (A) (A) (A) (A) (A) (A) (A) (A) (A) (A) (A) (A)
                 (A) (A) (A) (A) (A) (A) (A) (A) (A) (A) (A) (A)
                 (A) (A) (A) (A) (A) (A) (A) (A) (A) (A) (A) (A)
                 (A) (A) (A) (A) (A) (A) (A) (A) (A) (A) (A) (A)
                 (A) (A) (A) (A) (A) (A) (A) (A) (A) (A) (A) (A)
                 (A) (A) (A) (A) (A) (A) (A) (A) (A) (A) (A) (A)
                 (A) (A) (A) (A) (A) (A) (A) (A) (A) (A) (A) (A)
                 (A) (A) (A) (A) (A) (A) (A) (A) (A) (A) (A) (A)
                 (A) (A) (A) (A) (A) (A) (A) (A) (A) (A) (A) (A)
                 (A) (A) (A) (A) (A) (A) (A) (A) (A) (A) (A) (A)
                 (A) (A) (A) (A) (A) (A) (A) (A) (A) (A) (A) (A)
                 (A) (A) (A) (A) (A) (A) (A) (A) (A) (A) (A) (A)
                 (A) (A) (A) (A) (A) (A) (A) (A) (A) (A) (A) (A)
                 (A) (A) (A) (A) (A) (A) (A) (A) (A) (A) (A) (A)
                 (A) (A) (A) (A) (A) (A) (A)
 The electronic state is 1-A.
 Alpha  occ. eigenvalues --  -66.25309 -19.20263 -19.19267 -10.25929 -10.22026
 Alpha  occ. eigenvalues --  -10.21795  -5.32979  -3.66542  -3.66377  -3.66225
 Alpha  occ. eigenvalues --   -1.04242  -1.01830  -0.78750  -0.70042  -0.64484
 Alpha  occ. eigenvalues --   -0.56741  -0.50705  -0.46561  -0.46434  -0.46109
 Alpha  occ. eigenvalues --   -0.43565  -0.40857  -0.39387  -0.37063  -0.36778
 Alpha  occ. eigenvalues --   -0.35585  -0.31545  -0.30442  -0.29253
 Alpha virt. eigenvalues --    0.01692   0.05492   0.05974   0.07981   0.08937
 Alpha virt. eigenvalues --    0.10031   0.10233   0.11942   0.12668   0.13543
 Alpha virt. eigenvalues --    0.14109   0.15074   0.15645   0.16108   0.19064
 Alpha virt. eigenvalues --    0.21407   0.21821   0.23753   0.24318   0.24709
 Alpha virt. eigenvalues --    0.26545   0.27828   0.29478   0.30564   0.31027
 Alpha virt. eigenvalues --    0.34399   0.37251   0.39779   0.40528   0.40809
 Alpha virt. eigenvalues --    0.41801   0.42593   0.44082   0.45070   0.45704
 Alpha virt. eigenvalues --    0.47281   0.47480   0.48151   0.49281   0.50699
 Alpha virt. eigenvalues --    0.51208   0.53949   0.56036   0.56490   0.57920
 Alpha virt. eigenvalues --    0.60800   0.62582   0.64202   0.66694   0.69512
 Alpha virt. eigenvalues --    0.72556   0.74196   0.77095   0.78370   0.81067
 Alpha virt. eigenvalues --    0.82397   0.85019   0.86087   0.89326   0.91883
 Alpha virt. eigenvalues --    0.93396   0.95951   0.96508   0.99490   1.01169
 Alpha virt. eigenvalues --    1.04376   1.06947   1.08089   1.08892   1.11034
 Alpha virt. eigenvalues --    1.12108   1.12358   1.14676   1.17115   1.22417
 Alpha virt. eigenvalues --    1.27468   1.29251   1.31085   1.37508   1.39263
 Alpha virt. eigenvalues --    1.41817   1.45504   1.47447   1.50732   1.52230
 Alpha virt. eigenvalues --    1.53499   1.54211   1.55249   1.56642   1.57126
 Alpha virt. eigenvalues --    1.60214   1.61462   1.61829   1.64186   1.65892
 Alpha virt. eigenvalues --    1.67135   1.72488   1.74979   1.75688   1.79626
 Alpha virt. eigenvalues --    1.81828   1.83135   1.88710   1.90230   1.92906
 Alpha virt. eigenvalues --    1.94570   1.95908   1.99184   1.99372   2.04224
 Alpha virt. eigenvalues --    2.05342   2.09261   2.10820   2.12125   2.15536
 Alpha virt. eigenvalues --    2.16563   2.18923   2.27480   2.29657   2.30355
 Alpha virt. eigenvalues --    2.32739   2.33205   2.35066   2.35770   2.36147
 Alpha virt. eigenvalues --    2.38224   2.41707   2.45859   2.46694   2.48460
 Alpha virt. eigenvalues --    2.51549   2.52330   2.54282   2.56615   2.58365
 Alpha virt. eigenvalues --    2.59991   2.60985   2.65293   2.66368   2.71919
 Alpha virt. eigenvalues --    2.73156   2.78196   2.81022   2.84108   2.84917
 Alpha virt. eigenvalues --    2.89474   2.93558   2.96781   2.99406   3.03631
 Alpha virt. eigenvalues --    3.06240   3.08993   3.11112   3.11286   3.15307
 Alpha virt. eigenvalues --    3.21187   3.21812   3.23179   3.27698   3.31226
 Alpha virt. eigenvalues --    3.32047   3.33592   3.36850   3.40263   3.44269
 Alpha virt. eigenvalues --    3.45526   3.46894   3.49822   3.53138   3.54915
 Alpha virt. eigenvalues --    3.58742   3.59246   3.64018   3.66598   3.76939
 Alpha virt. eigenvalues --    3.80334   3.88405   3.91756   3.95435   4.02308
 Alpha virt. eigenvalues --    4.19890   4.23568   4.26368   4.33959   4.37757
 Alpha virt. eigenvalues --    4.41670   4.46312   4.53379   4.56932   4.78191
 Alpha virt. eigenvalues --    5.15451   5.16472   5.18163   5.19682   5.29034
 Alpha virt. eigenvalues --    5.31482   5.39079   5.41837   5.45742   5.50200
 Alpha virt. eigenvalues --    5.80180   5.87783   6.04506   6.24023   6.38686
 Alpha virt. eigenvalues --    6.40509   6.53616   6.57488   6.61660   6.69267
 Alpha virt. eigenvalues --    6.71484   6.78511   6.81890   7.00769   7.08187
 Alpha virt. eigenvalues --    7.13724   7.21300  11.89035  22.37160  22.40634
 Alpha virt. eigenvalues --   22.45351  43.62045  43.94256
          Condensed to atoms (all electrons):
              1          2          3          4          5          6
     1  H    0.553180   0.408507  -0.033891  -0.026533  -0.024467  -0.006776
     2  C    0.408507   4.932925   0.316681   0.404284   0.413582  -0.030810
     3  C   -0.033891   0.316681   5.055486  -0.042887  -0.039636   0.386941
     4  H   -0.026533   0.404284  -0.042887   0.574103  -0.026156  -0.004530
     5  H   -0.024467   0.413582  -0.039636  -0.026156   0.528963   0.007644
     6  H   -0.006776  -0.030810   0.386941  -0.004530   0.007644   0.574232
     7  Si   0.006529  -0.022918   0.392420  -0.003111  -0.008007  -0.028689
     8  H   -0.006990  -0.026880   0.375066   0.007805  -0.004036  -0.024907
     9  O   -0.000111  -0.002605  -0.031617   0.002121  -0.000163  -0.000018
    10  O    0.000002  -0.004177  -0.030902  -0.000032   0.007804   0.001357
    11  H   -0.000142   0.001930  -0.038885   0.000209   0.000408   0.001363
    12  H   -0.000058  -0.000010  -0.002885   0.000953   0.000062   0.000032
    13  C    0.000003  -0.000003   0.000896   0.000081  -0.000040  -0.000110
    14  H   -0.000003   0.000238  -0.000268  -0.000004  -0.000171  -0.000001
    15  H    0.000000  -0.000031  -0.000024  -0.000005   0.000085   0.000012
    16  H    0.000001  -0.000234   0.000791   0.000009   0.000020   0.000012
              7          8          9         10         11         12
     1  H    0.006529  -0.006990  -0.000111   0.000002  -0.000142  -0.000058
     2  C   -0.022918  -0.026880  -0.002605  -0.004177   0.001930  -0.000010
     3  C    0.392420   0.375066  -0.031617  -0.030902  -0.038885  -0.002885
     4  H   -0.003111   0.007805   0.002121  -0.000032   0.000209   0.000953
     5  H   -0.008007  -0.004036  -0.000163   0.007804   0.000408   0.000062
     6  H   -0.028689  -0.024907  -0.000018   0.001357   0.001363   0.000032
     7  Si  11.909201  -0.008900   0.480235   0.458362   0.389298  -0.028612
     8  H   -0.008900   0.557838   0.000968   0.001069   0.000247  -0.000039
     9  O    0.480235   0.000968   7.846327  -0.044295  -0.024602   0.294440
    10  O    0.458362   0.001069  -0.044295   7.847247  -0.026716  -0.000832
    11  H    0.389298   0.000247  -0.024602  -0.026716   0.754499   0.006453
    12  H   -0.028612  -0.000039   0.294440  -0.000832   0.006453   0.417642
    13  C   -0.052495   0.000078  -0.013129   0.265872   0.003106   0.001010
    14  H    0.008008  -0.000007   0.000366  -0.039793  -0.000275   0.000018
    15  H   -0.016607  -0.000028  -0.000417  -0.043464   0.010851   0.000101
    16  H   -0.004740  -0.000008   0.010354  -0.045631  -0.001843   0.000382
             13         14         15         16
     1  H    0.000003  -0.000003   0.000000   0.000001
     2  C   -0.000003   0.000238  -0.000031  -0.000234
     3  C    0.000896  -0.000268  -0.000024   0.000791
     4  H    0.000081  -0.000004  -0.000005   0.000009
     5  H   -0.000040  -0.000171   0.000085   0.000020
     6  H   -0.000110  -0.000001   0.000012   0.000012
     7  Si  -0.052495   0.008008  -0.016607  -0.004740
     8  H    0.000078  -0.000007  -0.000028  -0.000008
     9  O   -0.013129   0.000366  -0.000417   0.010354
    10  O    0.265872  -0.039793  -0.043464  -0.045631
    11  H    0.003106  -0.000275   0.010851  -0.001843
    12  H    0.001010   0.000018   0.000101   0.000382
    13  C    4.765418   0.400837   0.418030   0.409247
    14  H    0.400837   0.571400  -0.031681  -0.035009
    15  H    0.418030  -0.031681   0.593054  -0.045712
    16  H    0.409247  -0.035009  -0.045712   0.601246
 Mulliken atomic charges:
              1
     1  H    0.130750
     2  C   -0.390479
     3  C   -0.307287
     4  H    0.113693
     5  H    0.144107
     6  H    0.124248
     7  Si   0.530027
     8  H    0.128725
     9  O   -0.517856
    10  O   -0.345870
    11  H   -0.075901
    12  H    0.311345
    13  C   -0.198802
    14  H    0.126348
    15  H    0.115837
    16  H    0.111114
 Sum of Mulliken atomic charges =   0.00000
 Mulliken charges with hydrogens summed into heavy atoms:
              1
     2  C   -0.001929
     3  C   -0.054314
     7  Si   0.454126
     9  O   -0.206512
    10  O   -0.345870
    13  C    0.154498
 Sum of Mulliken charges with hydrogens summed into heavy atoms =   0.00000
 Electronic spatial extent (au):  <R**2>=            871.3505
 Charge=              0.0000 electrons
 Dipole moment (field-independent basis, Debye):
    X=             -0.8739    Y=             -0.4647    Z=             -1.1516  Tot=              1.5185
 Quadrupole moment (field-independent basis, Debye-Ang):
   XX=            -41.7727   YY=            -48.7924   ZZ=            -42.7519
   XY=             -2.3187   XZ=             -1.1328   YZ=             -2.2527
 Traceless Quadrupole moment (field-independent basis, Debye-Ang):
   XX=              2.6663   YY=             -4.3534   ZZ=              1.6871
   XY=             -2.3187   XZ=             -1.1328   YZ=             -2.2527
 Octapole moment (field-independent basis, Debye-Ang**2):
  XXX=             11.8634  YYY=             -5.3634  ZZZ=            -11.7720  XYY=             -1.5902
  XXY=             -4.0354  XXZ=             -0.1296  XZZ=              2.4562  YZZ=              4.7827
  YYZ=             -4.1083  XYZ=              0.3610
 Hexadecapole moment (field-independent basis, Debye-Ang**3):
 XXXX=           -720.9609 YYYY=           -286.4440 ZZZZ=           -160.7713 XXXY=             -9.5835
 XXXZ=             -6.5055 YYYX=            -11.8263 YYYZ=             -8.1935 ZZZX=             -7.9491
 ZZZY=            -21.8741 XXYY=           -165.7584 XXZZ=           -151.3969 YYZZ=            -64.7532
 XXYZ=             -1.6043 YYXZ=             -4.2906 ZZXY=              0.5059
 N-N= 3.296207921653D+02 E-N=-1.983270589827D+03  KE= 5.582592966766D+02
 1\1\GINC-TARSUS4\SP\RPBE1PBE\def2TZVP\C3H10O2Si1\RENATO\08-Aug-2018\0\
 \#SP PBE1PBE/Def2TZVP geom=connectivity\\Structure: 109\\0,1\H,0,0.,0.
 ,0.\C,0,1.093,0.,0.\C,0,1.655,1.421,0.\H,0,1.41,-0.56,-0.885\H,0,1.424
 ,-0.557,0.88\H,0,1.308,1.969,-0.883\Si,0,3.513,1.515,0.035\H,0,1.282,1
 .975,0.868\O,0,4.552,0.894,-1.084\O,0,3.968,0.824,1.454\H,0,4.029,2.90
 6,-0.04\H,0,4.466,-0.036,-1.299\C,0,5.301,0.766,1.905\H,0,5.308,0.322,
 2.902\H,0,5.747,1.766,1.967\H,0,5.921,0.153,1.244\\Version=EM64L-G09Re
 vC.01\State=1-A\HF=-560.0543378\RMSD=8.207e-09\Dipole=-0.3140118,-0.50
 63849,-0.0434767\Quadrupole=0.7920148,0.041724,-0.8337388,-1.9407626,2
 .3850927,2.0876879\PG=C01 [X(C3H10O2Si1)]\\@


 ASKING DUMB QUESTIONS IS EASIER THAN CORECTING DUMB MISTAKES.
 Job cpu time:  0 days  0 hours 12 minutes 26.0 seconds.
 File lengths (MBytes):  RWF=     40 Int=      0 D2E=      0 Chk=      3 Scr=      1
 Normal termination of Gaussian 09 at Wed Aug  8 11:00:52 2018.
