 Entering Gaussian System, Link 0=g09
 Initial command:
 /usr/local/gaussian09/g09/l1.exe /scratch/renato/Gau-3057.inp -scrdir=/scratch/renato/
 Entering Link 1 = /usr/local/gaussian09/g09/l1.exe PID=      3059.
  
 Copyright (c) 1988,1990,1992,1993,1995,1998,2003,2009,2011,
            Gaussian, Inc.  All Rights Reserved.
  
 This is part of the Gaussian(R) 09 program.  It is based on
 the Gaussian(R) 03 system (copyright 2003, Gaussian, Inc.),
 the Gaussian(R) 98 system (copyright 1998, Gaussian, Inc.),
 the Gaussian(R) 94 system (copyright 1995, Gaussian, Inc.),
 the Gaussian 92(TM) system (copyright 1992, Gaussian, Inc.),
 the Gaussian 90(TM) system (copyright 1990, Gaussian, Inc.),
 the Gaussian 88(TM) system (copyright 1988, Gaussian, Inc.),
 the Gaussian 86(TM) system (copyright 1986, Carnegie Mellon
 University), and the Gaussian 82(TM) system (copyright 1983,
 Carnegie Mellon University). Gaussian is a federally registered
 trademark of Gaussian, Inc.
  
 This software contains proprietary and confidential information,
 including trade secrets, belonging to Gaussian, Inc.
  
 This software is provided under written license and may be
 used, copied, transmitted, or stored only in accord with that
 written license.
  
 The following legend is applicable only to US Government
 contracts under FAR:
  
                    RESTRICTED RIGHTS LEGEND
  
 Use, reproduction and disclosure by the US Government is
 subject to restrictions as set forth in subparagraphs (a)
 and (c) of the Commercial Computer Software - Restricted
 Rights clause in FAR 52.227-19.
  
 Gaussian, Inc.
 340 Quinnipiac St., Bldg. 40, Wallingford CT 06492
  
  
 ---------------------------------------------------------------
 Warning -- This program may not be used in any manner that
 competes with the business of Gaussian, Inc. or will provide
 assistance to any competitor of Gaussian, Inc.  The licensee
 of this program is prohibited from giving any competitor of
 Gaussian, Inc. access to this program.  By using this program,
 the user acknowledges that Gaussian, Inc. is engaged in the
 business of creating and licensing software in the field of
 computational chemistry and represents and warrants to the
 licensee that it is not a competitor of Gaussian, Inc. and that
 it will not use this program in any manner prohibited above.
 ---------------------------------------------------------------
  

 Cite this work as:
 Gaussian 09, Revision C.01,
 M. J. Frisch, G. W. Trucks, H. B. Schlegel, G. E. Scuseria, 
 M. A. Robb, J. R. Cheeseman, G. Scalmani, V. Barone, B. Mennucci, 
 G. A. Petersson, H. Nakatsuji, M. Caricato, X. Li, H. P. Hratchian, 
 A. F. Izmaylov, J. Bloino, G. Zheng, J. L. Sonnenberg, M. Hada, 
 M. Ehara, K. Toyota, R. Fukuda, J. Hasegawa, M. Ishida, T. Nakajima, 
 Y. Honda, O. Kitao, H. Nakai, T. Vreven, J. A. Montgomery, Jr., 
 J. E. Peralta, F. Ogliaro, M. Bearpark, J. J. Heyd, E. Brothers, 
 K. N. Kudin, V. N. Staroverov, T. Keith, R. Kobayashi, J. Normand, 
 K. Raghavachari, A. Rendell, J. C. Burant, S. S. Iyengar, J. Tomasi, 
 M. Cossi, N. Rega, J. M. Millam, M. Klene, J. E. Knox, J. B. Cross, 
 V. Bakken, C. Adamo, J. Jaramillo, R. Gomperts, R. E. Stratmann, 
 O. Yazyev, A. J. Austin, R. Cammi, C. Pomelli, J. W. Ochterski, 
 R. L. Martin, K. Morokuma, V. G. Zakrzewski, G. A. Voth, 
 P. Salvador, J. J. Dannenberg, S. Dapprich, A. D. Daniels, 
 O. Farkas, J. B. Foresman, J. V. Ortiz, J. Cioslowski, 
 and D. J. Fox, Gaussian, Inc., Wallingford CT, 2010.
 
 ******************************************
 Gaussian 09:  EM64L-G09RevC.01 23-Sep-2011
                 8-Aug-2018 
 ******************************************
 %nproc=2
 Will use up to    2 processors via shared memory.
 %mem=256MB
 %RWF=a13.rwf
 %chk=a13105
 %NoSave
 --------------------------------------
 #SP PBE1PBE/Def2TZVP geom=connectivity
 --------------------------------------
 1/38=1,57=2/1;
 2/12=2,17=6,18=5,40=1/2;
 3/5=44,7=101,11=2,16=1,25=1,30=1,74=-13/1,2,3;
 4//1;
 5/5=2,38=5/2;
 6/7=2,8=2,9=2,10=2,28=1/1;
 99/5=1,9=1/99;
 --------------
 Structure: 105
 --------------
 Charge =  0 Multiplicity = 1
 Symbolic Z-Matrix:
 H                     0.        0.        0. 
 C                     1.093     0.        0. 
 C                     1.655     1.421     0. 
 H                     1.41     -0.56     -0.885 
 H                     1.424    -0.557     0.88 
 H                     1.308     1.969    -0.883 
 Si                    3.513     1.515     0.035 
 H                     1.282     1.975     0.868 
 O                     4.522     0.881    -1.104 
 O                     3.968     0.824     1.454 
 H                     4.029     2.906    -0.04 
 H                     4.421    -0.048    -1.317 
 C                     5.301     0.766     1.905 
 H                     5.308     0.322     2.902 
 H                     5.747     1.766     1.967 
 H                     5.921     0.153     1.244 
 
                          Input orientation:                          
 ---------------------------------------------------------------------
 Center     Atomic      Atomic             Coordinates (Angstroms)
 Number     Number       Type             X           Y           Z
 ---------------------------------------------------------------------
      1          1           0        0.000000    0.000000    0.000000
      2          6           0        1.093000    0.000000    0.000000
      3          6           0        1.655000    1.421000    0.000000
      4          1           0        1.410000   -0.560000   -0.885000
      5          1           0        1.424000   -0.557000    0.880000
      6          1           0        1.308000    1.969000   -0.883000
      7         14           0        3.513000    1.515000    0.035000
      8          1           0        1.282000    1.975000    0.868000
      9          8           0        4.522000    0.881000   -1.104000
     10          8           0        3.968000    0.824000    1.454000
     11          1           0        4.029000    2.906000   -0.040000
     12          1           0        4.421000   -0.048000   -1.317000
     13          6           0        5.301000    0.766000    1.905000
     14          1           0        5.308000    0.322000    2.902000
     15          1           0        5.747000    1.766000    1.967000
     16          1           0        5.921000    0.153000    1.244000
 ---------------------------------------------------------------------
                    Distance matrix (angstroms):
                    1          2          3          4          5
     1  H    0.000000
     2  C    1.093000   0.000000
     3  C    2.181345   1.528098   0.000000
     4  H    1.756395   1.094218   2.183486   0.000000
     5  H    1.764207   1.092799   2.177210   1.765058   0.000000
     6  H    2.523393   2.168611   1.095629   2.531057   3.082580
     7  Si   3.825914   2.855320   1.860706   3.094291   3.061230
     8  H    2.509497   2.165588   1.095203   3.084740   2.536007
     9  O    4.737453   3.708506   3.119312   3.436421   3.949899
    10  O    4.305591   3.325465   2.796515   3.732257   2.951029
    11  H    4.967824   4.131166   2.800482   4.425646   4.429988
    12  H    4.613245   3.579438   3.397529   3.084621   3.750720
    13  C    5.684750   4.682205   4.165497   4.968124   4.222805
    14  H    6.058065   5.127525   4.793101   5.505788   4.466160
    15  H    6.325809   5.352342   4.553304   5.688036   5.026552
    16  H    6.052205   4.988039   4.621051   5.038862   4.567232
                    6          7          8          9         10
     6  H    0.000000
     7  Si   2.431227   0.000000
     8  H    1.751203   2.425459   0.000000
     9  O    3.400350   1.648441   3.947559   0.000000
    10  O    3.721316   1.642579   2.980401   2.617925   0.000000
    11  H    2.998743   1.485517   3.039282   2.340036   2.563295
    12  H    3.734624   2.257285   4.326670   0.958442   2.940074
    13  C    5.016393   2.693482   4.323125   3.110329   1.408423
    14  H    5.747942   3.586776   4.803982   4.120475   2.035757
    15  H    5.279056   2.964183   4.603011   3.422702   2.077348
    16  H    5.394604   3.019137   4.998138   2.828478   2.075705
                   11         12         13         14         15
    11  H    0.000000
    12  H    3.241992   0.000000
    13  C    3.159210   3.437773   0.000000
    14  H    4.119255   4.327081   1.091418   0.000000
    15  H    2.877355   3.979137   1.096704   1.775410   0.000000
    16  H    3.578733   2.974747   1.094116   1.775752   1.776168
                   16
    16  H    0.000000
 Stoichiometry    C3H10O2Si
 Framework group  C1[X(C3H10O2Si)]
 Deg. of freedom    42
 Full point group                 C1      NOp   1
 Largest Abelian subgroup         C1      NOp   1
 Largest concise Abelian subgroup C1      NOp   1
                         Standard orientation:                         
 ---------------------------------------------------------------------
 Center     Atomic      Atomic             Coordinates (Angstroms)
 Number     Number       Type             X           Y           Z
 ---------------------------------------------------------------------
      1          1           0       -3.344813   -1.021001   -0.509473
      2          6           0       -2.323624   -0.665114   -0.668115
      3          6           0       -1.700907   -0.148148    0.628055
      4          1           0       -2.375509    0.116996   -1.431611
      5          1           0       -1.744815   -1.494179   -1.082653
      6          1           0       -2.296333    0.676339    1.035597
      7         14           0        0.053722    0.446866    0.456419
      8          1           0       -1.707702   -0.934333    1.390509
      9          8           0        0.554437    1.669523   -0.529356
     10          8           0        0.927722   -0.866950    0.000261
     11          1           0        0.605165    1.010490    1.715387
     12          1           0        0.321730    1.613367   -1.457421
     13          6           0        2.326920   -0.859588   -0.160507
     14          1           0        2.651708   -1.874743   -0.395384
     15          1           0        2.834018   -0.536121    0.756543
     16          1           0        2.632842   -0.196422   -0.975192
 ---------------------------------------------------------------------
 Rotational constants (GHZ):      4.1163645      1.8848672      1.5651212
 Standard basis: def2TZVP (5D, 7F)
 There are   252 symmetry adapted basis functions of A   symmetry.
 Integral buffers will be    131072 words long.
 Raffenetti 2 integral format.
 Two-electron integral symmetry is turned on.
   252 basis functions,   404 primitive gaussians,   282 cartesian basis functions
    29 alpha electrons       29 beta electrons
       nuclear repulsion energy       329.5718339329 Hartrees.
 NAtoms=   16 NActive=   16 NUniq=   16 SFac= 1.00D+00 NAtFMM=   60 NAOKFM=F Big=F
 One-electron integrals computed using PRISM.
   1 Symmetry operations used in ECPInt.
 ECPInt:  NShTT=    5886 NPrTT=   17754 LenC2=    5776 LenP2D=   13909.
 LDataN:  DoStor=T MaxTD1= 6 Len=  172
 NBasis=   252 RedAO= T  NBF=   252
 NBsUse=   252 1.00D-06 NBFU=   252
 Harris functional with IExCor= 1009 diagonalized for initial guess.
 ExpMin= 7.01D-02 ExpMax= 4.48D+04 ExpMxC= 1.53D+03 IAcc=2 IRadAn=         4 AccDes= 0.00D+00
 HarFok:  IExCor= 1009 AccDes= 0.00D+00 IRadAn=         4 IDoV= 1
 ScaDFX=  1.000000  1.000000  1.000000  1.000000
 FoFCou: FMM=F IPFlag=           0 FMFlag=      100000 FMFlg1=           0
         NFxFlg=           0 DoJE=T BraDBF=F KetDBF=T FulRan=T
         Omega=  0.000000  0.000000  1.000000  0.000000  0.000000 ICntrl=     500 IOpCl=  0
         NMat0=    1 NMatS0=    1 NMatT0=    0 NMatD0=    1 NMtDS0=    0 NMtDT0=    0
         I1Cent=           4 NGrid=           0.
 Petite list used in FoFCou.
 Initial guess orbital symmetries:
       Occupied  (A) (A) (A) (A) (A) (A) (A) (A) (A) (A) (A) (A)
                 (A) (A) (A) (A) (A) (A) (A) (A) (A) (A) (A) (A)
                 (A) (A) (A) (A) (A)
       Virtual   (A) (A) (A) (A) (A) (A) (A) (A) (A) (A) (A) (A)
                 (A) (A) (A) (A) (A) (A) (A) (A) (A) (A) (A) (A)
                 (A) (A) (A) (A) (A) (A) (A) (A) (A) (A) (A) (A)
                 (A) (A) (A) (A) (A) (A) (A) (A) (A) (A) (A) (A)
                 (A) (A) (A) (A) (A) (A) (A) (A) (A) (A) (A) (A)
                 (A) (A) (A) (A) (A) (A) (A) (A) (A) (A) (A) (A)
                 (A) (A) (A) (A) (A) (A) (A) (A) (A) (A) (A) (A)
                 (A) (A) (A) (A) (A) (A) (A) (A) (A) (A) (A) (A)
                 (A) (A) (A) (A) (A) (A) (A) (A) (A) (A) (A) (A)
                 (A) (A) (A) (A) (A) (A) (A) (A) (A) (A) (A) (A)
                 (A) (A) (A) (A) (A) (A) (A) (A) (A) (A) (A) (A)
                 (A) (A) (A) (A) (A) (A) (A) (A) (A) (A) (A) (A)
                 (A) (A) (A) (A) (A) (A) (A) (A) (A) (A) (A) (A)
                 (A) (A) (A) (A) (A) (A) (A) (A) (A) (A) (A) (A)
                 (A) (A) (A) (A) (A) (A) (A) (A) (A) (A) (A) (A)
                 (A) (A) (A) (A) (A) (A) (A) (A) (A) (A) (A) (A)
                 (A) (A) (A) (A) (A) (A) (A) (A) (A) (A) (A) (A)
                 (A) (A) (A) (A) (A) (A) (A) (A) (A) (A) (A) (A)
                 (A) (A) (A) (A) (A) (A) (A)
 The electronic state of the initial guess is 1-A.
 Requested convergence on RMS density matrix=1.00D-08 within 128 cycles.
 Requested convergence on MAX density matrix=1.00D-06.
 Requested convergence on             energy=1.00D-06.
 No special actions if energy rises.
 Integral accuracy reduced to 1.0D-05 until final iterations.
 Initial convergence to 1.0D-05 achieved.  Increase integral accuracy.
 SCF Done:  E(RPBE1PBE) =  -560.055608231     A.U. after   12 cycles
             Convg  =    0.6055D-08             -V/T =  2.0032

 **********************************************************************

            Population analysis using the SCF density.

 **********************************************************************

 Orbital symmetries:
       Occupied  (A) (A) (A) (A) (A) (A) (A) (A) (A) (A) (A) (A)
                 (A) (A) (A) (A) (A) (A) (A) (A) (A) (A) (A) (A)
                 (A) (A) (A) (A) (A)
       Virtual   (A) (A) (A) (A) (A) (A) (A) (A) (A) (A) (A) (A)
                 (A) (A) (A) (A) (A) (A) (A) (A) (A) (A) (A) (A)
                 (A) (A) (A) (A) (A) (A) (A) (A) (A) (A) (A) (A)
                 (A) (A) (A) (A) (A) (A) (A) (A) (A) (A) (A) (A)
                 (A) (A) (A) (A) (A) (A) (A) (A) (A) (A) (A) (A)
                 (A) (A) (A) (A) (A) (A) (A) (A) (A) (A) (A) (A)
                 (A) (A) (A) (A) (A) (A) (A) (A) (A) (A) (A) (A)
                 (A) (A) (A) (A) (A) (A) (A) (A) (A) (A) (A) (A)
                 (A) (A) (A) (A) (A) (A) (A) (A) (A) (A) (A) (A)
                 (A) (A) (A) (A) (A) (A) (A) (A) (A) (A) (A) (A)
                 (A) (A) (A) (A) (A) (A) (A) (A) (A) (A) (A) (A)
                 (A) (A) (A) (A) (A) (A) (A) (A) (A) (A) (A) (A)
                 (A) (A) (A) (A) (A) (A) (A) (A) (A) (A) (A) (A)
                 (A) (A) (A) (A) (A) (A) (A) (A) (A) (A) (A) (A)
                 (A) (A) (A) (A) (A) (A) (A) (A) (A) (A) (A) (A)
                 (A) (A) (A) (A) (A) (A) (A) (A) (A) (A) (A) (A)
                 (A) (A) (A) (A) (A) (A) (A) (A) (A) (A) (A) (A)
                 (A) (A) (A) (A) (A) (A) (A) (A) (A) (A) (A) (A)
                 (A) (A) (A) (A) (A) (A) (A)
 The electronic state is 1-A.
 Alpha  occ. eigenvalues --  -66.25308 -19.20279 -19.19339 -10.25979 -10.21997
 Alpha  occ. eigenvalues --  -10.21711  -5.32977  -3.66536  -3.66377  -3.66227
 Alpha  occ. eigenvalues --   -1.04250  -1.01890  -0.78700  -0.70086  -0.64444
 Alpha  occ. eigenvalues --   -0.56744  -0.50749  -0.46544  -0.46452  -0.46129
 Alpha  occ. eigenvalues --   -0.43567  -0.40858  -0.39364  -0.37082  -0.36754
 Alpha  occ. eigenvalues --   -0.35623  -0.31558  -0.30473  -0.29312
 Alpha virt. eigenvalues --    0.01781   0.05526   0.05994   0.07977   0.08938
 Alpha virt. eigenvalues --    0.10090   0.10263   0.11915   0.12640   0.13572
 Alpha virt. eigenvalues --    0.14225   0.15007   0.15601   0.16121   0.19084
 Alpha virt. eigenvalues --    0.21414   0.21804   0.23767   0.24277   0.24733
 Alpha virt. eigenvalues --    0.26570   0.27850   0.29500   0.30477   0.31017
 Alpha virt. eigenvalues --    0.34277   0.37184   0.39815   0.40477   0.40743
 Alpha virt. eigenvalues --    0.41838   0.42547   0.44167   0.45078   0.45663
 Alpha virt. eigenvalues --    0.47166   0.47486   0.48077   0.49405   0.50689
 Alpha virt. eigenvalues --    0.51211   0.53883   0.56084   0.56313   0.58104
 Alpha virt. eigenvalues --    0.60864   0.62561   0.64281   0.66589   0.69418
 Alpha virt. eigenvalues --    0.72740   0.74311   0.76964   0.78178   0.81065
 Alpha virt. eigenvalues --    0.82413   0.84940   0.86098   0.89204   0.91917
 Alpha virt. eigenvalues --    0.93349   0.95907   0.96510   0.99459   1.01225
 Alpha virt. eigenvalues --    1.04333   1.06963   1.08183   1.08905   1.11053
 Alpha virt. eigenvalues --    1.12067   1.12356   1.14782   1.17335   1.22282
 Alpha virt. eigenvalues --    1.27253   1.29155   1.31157   1.37408   1.39675
 Alpha virt. eigenvalues --    1.41810   1.45615   1.47450   1.50657   1.52261
 Alpha virt. eigenvalues --    1.53497   1.54196   1.55214   1.56552   1.57153
 Alpha virt. eigenvalues --    1.60220   1.61600   1.61962   1.64104   1.65939
 Alpha virt. eigenvalues --    1.67059   1.72622   1.75014   1.75632   1.79721
 Alpha virt. eigenvalues --    1.81726   1.83187   1.88592   1.89967   1.92723
 Alpha virt. eigenvalues --    1.94589   1.95883   1.99218   1.99610   2.04281
 Alpha virt. eigenvalues --    2.05252   2.09275   2.10550   2.12154   2.15480
 Alpha virt. eigenvalues --    2.16517   2.18803   2.27412   2.29691   2.30164
 Alpha virt. eigenvalues --    2.32751   2.33189   2.35037   2.35764   2.36030
 Alpha virt. eigenvalues --    2.38035   2.41530   2.45716   2.46696   2.48479
 Alpha virt. eigenvalues --    2.51413   2.52281   2.54332   2.56543   2.58401
 Alpha virt. eigenvalues --    2.59910   2.61024   2.65258   2.66364   2.71840
 Alpha virt. eigenvalues --    2.73099   2.77982   2.81025   2.84207   2.84689
 Alpha virt. eigenvalues --    2.89236   2.93437   2.96491   2.99470   3.03504
 Alpha virt. eigenvalues --    3.06493   3.08987   3.10920   3.11266   3.15293
 Alpha virt. eigenvalues --    3.21064   3.21864   3.23141   3.27650   3.31072
 Alpha virt. eigenvalues --    3.32082   3.33514   3.36762   3.40244   3.44247
 Alpha virt. eigenvalues --    3.45475   3.46778   3.49412   3.53161   3.54836
 Alpha virt. eigenvalues --    3.59005   3.59201   3.63916   3.66283   3.76913
 Alpha virt. eigenvalues --    3.80418   3.88279   3.91858   3.95495   4.02414
 Alpha virt. eigenvalues --    4.19838   4.23620   4.26221   4.33981   4.37675
 Alpha virt. eigenvalues --    4.41671   4.46374   4.53369   4.56958   4.78235
 Alpha virt. eigenvalues --    5.15470   5.16461   5.18125   5.19502   5.28972
 Alpha virt. eigenvalues --    5.31234   5.39011   5.41813   5.45691   5.50154
 Alpha virt. eigenvalues --    5.80155   5.87639   6.04416   6.23851   6.39060
 Alpha virt. eigenvalues --    6.40526   6.53514   6.57620   6.61474   6.69073
 Alpha virt. eigenvalues --    6.71005   6.78613   6.81877   7.00315   7.07900
 Alpha virt. eigenvalues --    7.13962   7.21310  11.89456  22.37156  22.40655
 Alpha virt. eigenvalues --   22.45307  43.61875  43.94248
          Condensed to atoms (all electrons):
              1          2          3          4          5          6
     1  H    0.553001   0.408594  -0.033921  -0.026482  -0.024488  -0.006781
     2  C    0.408594   4.933325   0.316778   0.403950   0.413533  -0.030661
     3  C   -0.033921   0.316778   5.053226  -0.043062  -0.039625   0.386977
     4  H   -0.026482   0.403950  -0.043062   0.574960  -0.026257  -0.004560
     5  H   -0.024488   0.413533  -0.039625  -0.026257   0.529428   0.007654
     6  H   -0.006781  -0.030661   0.386977  -0.004560   0.007654   0.574619
     7  Si   0.006654  -0.022677   0.395157  -0.003161  -0.008072  -0.028711
     8  H   -0.006996  -0.027051   0.374625   0.007893  -0.004041  -0.025067
     9  O   -0.000107  -0.002673  -0.032360   0.002325  -0.000179  -0.000080
    10  O    0.000002  -0.004267  -0.031022   0.000002   0.007784   0.001350
    11  H   -0.000140   0.001909  -0.038405   0.000211   0.000408   0.001370
    12  H   -0.000060  -0.000005  -0.002784   0.001037   0.000060   0.000035
    13  C    0.000004  -0.000012   0.000997   0.000084  -0.000042  -0.000112
    14  H   -0.000003   0.000237  -0.000286  -0.000004  -0.000170  -0.000001
    15  H    0.000000  -0.000033  -0.000026  -0.000005   0.000085   0.000011
    16  H    0.000001  -0.000223   0.000798   0.000007   0.000018   0.000012
              7          8          9         10         11         12
     1  H    0.006654  -0.006996  -0.000107   0.000002  -0.000140  -0.000060
     2  C   -0.022677  -0.027051  -0.002673  -0.004267   0.001909  -0.000005
     3  C    0.395157   0.374625  -0.032360  -0.031022  -0.038405  -0.002784
     4  H   -0.003161   0.007893   0.002325   0.000002   0.000211   0.001037
     5  H   -0.008072  -0.004041  -0.000179   0.007784   0.000408   0.000060
     6  H   -0.028711  -0.025067  -0.000080   0.001350   0.001370   0.000035
     7  Si  11.907022  -0.009101   0.479668   0.457645   0.389401  -0.028484
     8  H   -0.009101   0.559515   0.001022   0.001134   0.000314  -0.000038
     9  O    0.479668   0.001022   7.845724  -0.043237  -0.023626   0.295002
    10  O    0.457645   0.001134  -0.043237   7.846644  -0.026733  -0.000861
    11  H    0.389401   0.000314  -0.023626  -0.026733   0.752169   0.006177
    12  H   -0.028484  -0.000038   0.295002  -0.000861   0.006177   0.416221
    13  C   -0.052347   0.000079  -0.012477   0.265549   0.003058   0.001006
    14  H    0.007971  -0.000007   0.000322  -0.039942  -0.000271   0.000019
    15  H   -0.016666  -0.000028  -0.000431  -0.043409   0.010784   0.000078
    16  H   -0.004718  -0.000009   0.010019  -0.045409  -0.001864   0.000368
             13         14         15         16
     1  H    0.000004  -0.000003   0.000000   0.000001
     2  C   -0.000012   0.000237  -0.000033  -0.000223
     3  C    0.000997  -0.000286  -0.000026   0.000798
     4  H    0.000084  -0.000004  -0.000005   0.000007
     5  H   -0.000042  -0.000170   0.000085   0.000018
     6  H   -0.000112  -0.000001   0.000011   0.000012
     7  Si  -0.052347   0.007971  -0.016666  -0.004718
     8  H    0.000079  -0.000007  -0.000028  -0.000009
     9  O   -0.012477   0.000322  -0.000431   0.010019
    10  O    0.265549  -0.039942  -0.043409  -0.045409
    11  H    0.003058  -0.000271   0.010784  -0.001864
    12  H    0.001006   0.000019   0.000078   0.000368
    13  C    4.765652   0.401059   0.418038   0.409546
    14  H    0.401059   0.570928  -0.031581  -0.034882
    15  H    0.418038  -0.031581   0.593116  -0.045898
    16  H    0.409546  -0.034882  -0.045898   0.600072
 Mulliken atomic charges:
              1
     1  H    0.130722
     2  C   -0.390724
     3  C   -0.307066
     4  H    0.113062
     5  H    0.143903
     6  H    0.123944
     7  Si   0.530421
     8  H    0.127756
     9  O   -0.518911
    10  O   -0.345229
    11  H   -0.074761
    12  H    0.312230
    13  C   -0.200082
    14  H    0.126612
    15  H    0.115962
    16  H    0.112160
 Sum of Mulliken atomic charges =   0.00000
 Mulliken charges with hydrogens summed into heavy atoms:
              1
     2  C   -0.003036
     3  C   -0.055366
     7  Si   0.455660
     9  O   -0.206681
    10  O   -0.345229
    13  C    0.154652
 Sum of Mulliken charges with hydrogens summed into heavy atoms =   0.00000
 Electronic spatial extent (au):  <R**2>=            871.0233
 Charge=              0.0000 electrons
 Dipole moment (field-independent basis, Debye):
    X=             -0.8229    Y=             -0.4767    Z=             -1.1274  Tot=              1.4750
 Quadrupole moment (field-independent basis, Debye-Ang):
   XX=            -41.7284   YY=            -48.8254   ZZ=            -42.7568
   XY=             -2.2692   XZ=             -1.0452   YZ=             -2.2328
 Traceless Quadrupole moment (field-independent basis, Debye-Ang):
   XX=              2.7085   YY=             -4.3886   ZZ=              1.6801
   XY=             -2.2692   XZ=             -1.0452   YZ=             -2.2328
 Octapole moment (field-independent basis, Debye-Ang**2):
  XXX=             12.1386  YYY=             -5.4201  ZZZ=            -11.6988  XYY=             -1.5600
  XXY=             -3.8923  XXZ=             -0.1875  XZZ=              2.2695  YZZ=              4.8663
  YYZ=             -4.1225  XYZ=              0.5070
 Hexadecapole moment (field-independent basis, Debye-Ang**3):
 XXXX=           -718.9703 YYYY=           -287.2714 ZZZZ=           -161.5830 XXXY=             -9.8157
 XXXZ=             -6.4826 YYYX=            -11.8854 YYYZ=             -8.2835 ZZZX=             -7.4490
 ZZZY=            -21.7457 XXYY=           -165.4477 XXZZ=           -151.4458 YYZZ=            -64.7219
 XXYZ=             -1.4239 YYXZ=             -4.0595 ZZXY=             -0.0024
 N-N= 3.295718339329D+02 E-N=-1.983167699553D+03  KE= 5.582562226026D+02
 1\1\GINC-TARSUS4\SP\RPBE1PBE\def2TZVP\C3H10O2Si1\RENATO\08-Aug-2018\0\
 \#SP PBE1PBE/Def2TZVP geom=connectivity\\Structure: 105\\0,1\H,0,0.,0.
 ,0.\C,0,1.093,0.,0.\C,0,1.655,1.421,0.\H,0,1.41,-0.56,-0.885\H,0,1.424
 ,-0.557,0.88\H,0,1.308,1.969,-0.883\Si,0,3.513,1.515,0.035\H,0,1.282,1
 .975,0.868\O,0,4.522,0.881,-1.104\O,0,3.968,0.824,1.454\H,0,4.029,2.90
 6,-0.04\H,0,4.421,-0.048,-1.317\C,0,5.301,0.766,1.905\H,0,5.308,0.322,
 2.902\H,0,5.747,1.766,1.967\H,0,5.921,0.153,1.244\\Version=EM64L-G09Re
 vC.01\State=1-A\HF=-560.0556082\RMSD=6.055e-09\Dipole=-0.2991748,-0.49
 63822,-0.0289555\Quadrupole=0.7793445,0.0889278,-0.8682723,-1.8680261,
 2.4157614,2.0799684\PG=C01 [X(C3H10O2Si1)]\\@


 WHEN HAVING A MEETING OF THE MINDS,
 MAKE SURE YOU HAVE THE EQUIPMENT FOR IT.
 Job cpu time:  0 days  0 hours 12 minutes 35.3 seconds.
 File lengths (MBytes):  RWF=     40 Int=      0 D2E=      0 Chk=      3 Scr=      1
 Normal termination of Gaussian 09 at Wed Aug  8 10:38:27 2018.
