 Entering Gaussian System, Link 0=g09
 Initial command:
 /usr/local/gaussian09/g09/l1.exe /scratch/renato/Gau-3797.inp -scrdir=/scratch/renato/
 Entering Link 1 = /usr/local/gaussian09/g09/l1.exe PID=      3799.
  
 Copyright (c) 1988,1990,1992,1993,1995,1998,2003,2009,2011,
            Gaussian, Inc.  All Rights Reserved.
  
 This is part of the Gaussian(R) 09 program.  It is based on
 the Gaussian(R) 03 system (copyright 2003, Gaussian, Inc.),
 the Gaussian(R) 98 system (copyright 1998, Gaussian, Inc.),
 the Gaussian(R) 94 system (copyright 1995, Gaussian, Inc.),
 the Gaussian 92(TM) system (copyright 1992, Gaussian, Inc.),
 the Gaussian 90(TM) system (copyright 1990, Gaussian, Inc.),
 the Gaussian 88(TM) system (copyright 1988, Gaussian, Inc.),
 the Gaussian 86(TM) system (copyright 1986, Carnegie Mellon
 University), and the Gaussian 82(TM) system (copyright 1983,
 Carnegie Mellon University). Gaussian is a federally registered
 trademark of Gaussian, Inc.
  
 This software contains proprietary and confidential information,
 including trade secrets, belonging to Gaussian, Inc.
  
 This software is provided under written license and may be
 used, copied, transmitted, or stored only in accord with that
 written license.
  
 The following legend is applicable only to US Government
 contracts under FAR:
  
                    RESTRICTED RIGHTS LEGEND
  
 Use, reproduction and disclosure by the US Government is
 subject to restrictions as set forth in subparagraphs (a)
 and (c) of the Commercial Computer Software - Restricted
 Rights clause in FAR 52.227-19.
  
 Gaussian, Inc.
 340 Quinnipiac St., Bldg. 40, Wallingford CT 06492
  
  
 ---------------------------------------------------------------
 Warning -- This program may not be used in any manner that
 competes with the business of Gaussian, Inc. or will provide
 assistance to any competitor of Gaussian, Inc.  The licensee
 of this program is prohibited from giving any competitor of
 Gaussian, Inc. access to this program.  By using this program,
 the user acknowledges that Gaussian, Inc. is engaged in the
 business of creating and licensing software in the field of
 computational chemistry and represents and warrants to the
 licensee that it is not a competitor of Gaussian, Inc. and that
 it will not use this program in any manner prohibited above.
 ---------------------------------------------------------------
  

 Cite this work as:
 Gaussian 09, Revision C.01,
 M. J. Frisch, G. W. Trucks, H. B. Schlegel, G. E. Scuseria, 
 M. A. Robb, J. R. Cheeseman, G. Scalmani, V. Barone, B. Mennucci, 
 G. A. Petersson, H. Nakatsuji, M. Caricato, X. Li, H. P. Hratchian, 
 A. F. Izmaylov, J. Bloino, G. Zheng, J. L. Sonnenberg, M. Hada, 
 M. Ehara, K. Toyota, R. Fukuda, J. Hasegawa, M. Ishida, T. Nakajima, 
 Y. Honda, O. Kitao, H. Nakai, T. Vreven, J. A. Montgomery, Jr., 
 J. E. Peralta, F. Ogliaro, M. Bearpark, J. J. Heyd, E. Brothers, 
 K. N. Kudin, V. N. Staroverov, T. Keith, R. Kobayashi, J. Normand, 
 K. Raghavachari, A. Rendell, J. C. Burant, S. S. Iyengar, J. Tomasi, 
 M. Cossi, N. Rega, J. M. Millam, M. Klene, J. E. Knox, J. B. Cross, 
 V. Bakken, C. Adamo, J. Jaramillo, R. Gomperts, R. E. Stratmann, 
 O. Yazyev, A. J. Austin, R. Cammi, C. Pomelli, J. W. Ochterski, 
 R. L. Martin, K. Morokuma, V. G. Zakrzewski, G. A. Voth, 
 P. Salvador, J. J. Dannenberg, S. Dapprich, A. D. Daniels, 
 O. Farkas, J. B. Foresman, J. V. Ortiz, J. Cioslowski, 
 and D. J. Fox, Gaussian, Inc., Wallingford CT, 2010.
 
 ******************************************
 Gaussian 09:  EM64L-G09RevC.01 23-Sep-2011
                 8-Aug-2018 
 ******************************************
 %nproc=2
 Will use up to    2 processors via shared memory.
 %mem=256MB
 %RWF=a13.rwf
 %chk=a13111
 %NoSave
 --------------------------------------
 #SP PBE1PBE/Def2TZVP geom=connectivity
 --------------------------------------
 1/38=1,57=2/1;
 2/12=2,17=6,18=5,40=1/2;
 3/5=44,7=101,11=2,16=1,25=1,30=1,74=-13/1,2,3;
 4//1;
 5/5=2,38=5/2;
 6/7=2,8=2,9=2,10=2,28=1/1;
 99/5=1,9=1/99;
 --------------
 Structure: 111
 --------------
 Charge =  0 Multiplicity = 1
 Symbolic Z-Matrix:
 H                     0.        0.        0. 
 C                     1.093     0.        0. 
 C                     1.655     1.421     0. 
 H                     1.41     -0.56     -0.885 
 H                     1.424    -0.557     0.88 
 H                     1.308     1.969    -0.883 
 Si                    3.513     1.515     0.035 
 H                     1.282     1.975     0.868 
 O                     4.567     0.9      -1.074 
 O                     3.968     0.824     1.454 
 H                     4.029     2.906    -0.04 
 H                     4.489    -0.03     -1.29 
 C                     5.301     0.766     1.905 
 H                     5.308     0.322     2.902 
 H                     5.747     1.766     1.967 
 H                     5.921     0.153     1.244 
 
                          Input orientation:                          
 ---------------------------------------------------------------------
 Center     Atomic      Atomic             Coordinates (Angstroms)
 Number     Number       Type             X           Y           Z
 ---------------------------------------------------------------------
      1          1           0        0.000000    0.000000    0.000000
      2          6           0        1.093000    0.000000    0.000000
      3          6           0        1.655000    1.421000    0.000000
      4          1           0        1.410000   -0.560000   -0.885000
      5          1           0        1.424000   -0.557000    0.880000
      6          1           0        1.308000    1.969000   -0.883000
      7         14           0        3.513000    1.515000    0.035000
      8          1           0        1.282000    1.975000    0.868000
      9          8           0        4.567000    0.900000   -1.074000
     10          8           0        3.968000    0.824000    1.454000
     11          1           0        4.029000    2.906000   -0.040000
     12          1           0        4.489000   -0.030000   -1.290000
     13          6           0        5.301000    0.766000    1.905000
     14          1           0        5.308000    0.322000    2.902000
     15          1           0        5.747000    1.766000    1.967000
     16          1           0        5.921000    0.153000    1.244000
 ---------------------------------------------------------------------
                    Distance matrix (angstroms):
                    1          2          3          4          5
     1  H    0.000000
     2  C    1.093000   0.000000
     3  C    2.181345   1.528098   0.000000
     4  H    1.756395   1.094218   2.183486   0.000000
     5  H    1.764207   1.092799   2.177210   1.765058   0.000000
     6  H    2.523393   2.168611   1.095629   2.531057   3.082580
     7  Si   3.825914   2.855320   1.860706   3.094291   3.061230
     8  H    2.509497   2.165588   1.095203   3.084740   2.536007
     9  O    4.777129   3.745951   3.147167   3.483385   3.977363
    10  O    4.305591   3.325465   2.796515   3.732257   2.951029
    11  H    4.967824   4.131166   2.800482   4.425646   4.429988
    12  H    4.670773   3.632880   3.435267   3.150423   3.792210
    13  C    5.684750   4.682205   4.165497   4.968124   4.222805
    14  H    6.058065   5.127525   4.793101   5.505788   4.466160
    15  H    6.325809   5.352342   4.553304   5.688036   5.026552
    16  H    6.052205   4.988039   4.621051   5.038862   4.567232
                    6          7          8          9         10
     6  H    0.000000
     7  Si   2.431227   0.000000
     8  H    1.751203   2.425459   0.000000
     9  O    3.435160   1.648946   3.964620   0.000000
    10  O    3.721316   1.642579   2.980401   2.599108   0.000000
    11  H    2.998743   1.485517   3.039282   2.320051   2.563295
    12  H    3.778943   2.257261   4.354519   0.957935   2.920667
    13  C    5.016393   2.693482   4.323125   3.071018   1.408423
    14  H    5.747942   3.586776   4.803982   4.085553   2.035757
    15  H    5.279056   2.964183   4.603011   3.374913   2.077348
    16  H    5.394604   3.019137   4.998138   2.786476   2.075705
                   11         12         13         14         15
    11  H    0.000000
    12  H    3.224003   0.000000
    13  C    3.159210   3.391310   0.000000
    14  H    4.119255   4.285736   1.091418   0.000000
    15  H    2.877355   3.926351   1.096704   1.775410   0.000000
    16  H    3.578733   2.916379   1.094116   1.775752   1.776168
                   16
    16  H    0.000000
 Stoichiometry    C3H10O2Si
 Framework group  C1[X(C3H10O2Si)]
 Deg. of freedom    42
 Full point group                 C1      NOp   1
 Largest Abelian subgroup         C1      NOp   1
 Largest concise Abelian subgroup C1      NOp   1
                         Standard orientation:                         
 ---------------------------------------------------------------------
 Center     Atomic      Atomic             Coordinates (Angstroms)
 Number     Number       Type             X           Y           Z
 ---------------------------------------------------------------------
      1          1           0       -3.361148   -0.996498   -0.508144
      2          6           0       -2.336604   -0.651173   -0.668482
      3          6           0       -1.712091   -0.125453    0.623295
      4          1           0       -2.380177    0.122963   -1.440575
      5          1           0       -1.764130   -1.489672   -1.072713
      6          1           0       -2.301205    0.708536    1.020546
      7         14           0        0.047957    0.452518    0.448920
      8          1           0       -1.727228   -0.903170    1.394266
      9          8           0        0.614951    1.651346   -0.531056
     10          8           0        0.911509   -0.873682    0.008990
     11          1           0        0.601677    1.025099    1.702836
     12          1           0        0.404126    1.596827   -1.463912
     13          6           0        2.311043   -0.880126   -0.148863
     14          1           0        2.627533   -1.900547   -0.371956
     15          1           0        2.819044   -0.551034    0.765682
     16          1           0        2.624340   -0.228563   -0.970082
 ---------------------------------------------------------------------
 Rotational constants (GHZ):      4.1432013      1.8799568      1.5624303
 Standard basis: def2TZVP (5D, 7F)
 There are   252 symmetry adapted basis functions of A   symmetry.
 Integral buffers will be    131072 words long.
 Raffenetti 2 integral format.
 Two-electron integral symmetry is turned on.
   252 basis functions,   404 primitive gaussians,   282 cartesian basis functions
    29 alpha electrons       29 beta electrons
       nuclear repulsion energy       329.6339973724 Hartrees.
 NAtoms=   16 NActive=   16 NUniq=   16 SFac= 1.00D+00 NAtFMM=   60 NAOKFM=F Big=F
 One-electron integrals computed using PRISM.
   1 Symmetry operations used in ECPInt.
 ECPInt:  NShTT=    5886 NPrTT=   17754 LenC2=    5776 LenP2D=   13909.
 LDataN:  DoStor=T MaxTD1= 6 Len=  172
 NBasis=   252 RedAO= T  NBF=   252
 NBsUse=   252 1.00D-06 NBFU=   252
 Harris functional with IExCor= 1009 diagonalized for initial guess.
 ExpMin= 7.01D-02 ExpMax= 4.48D+04 ExpMxC= 1.53D+03 IAcc=2 IRadAn=         4 AccDes= 0.00D+00
 HarFok:  IExCor= 1009 AccDes= 0.00D+00 IRadAn=         4 IDoV= 1
 ScaDFX=  1.000000  1.000000  1.000000  1.000000
 FoFCou: FMM=F IPFlag=           0 FMFlag=      100000 FMFlg1=           0
         NFxFlg=           0 DoJE=T BraDBF=F KetDBF=T FulRan=T
         Omega=  0.000000  0.000000  1.000000  0.000000  0.000000 ICntrl=     500 IOpCl=  0
         NMat0=    1 NMatS0=    1 NMatT0=    0 NMatD0=    1 NMtDS0=    0 NMtDT0=    0
         I1Cent=           4 NGrid=           0.
 Petite list used in FoFCou.
 Initial guess orbital symmetries:
       Occupied  (A) (A) (A) (A) (A) (A) (A) (A) (A) (A) (A) (A)
                 (A) (A) (A) (A) (A) (A) (A) (A) (A) (A) (A) (A)
                 (A) (A) (A) (A) (A)
       Virtual   (A) (A) (A) (A) (A) (A) (A) (A) (A) (A) (A) (A)
                 (A) (A) (A) (A) (A) (A) (A) (A) (A) (A) (A) (A)
                 (A) (A) (A) (A) (A) (A) (A) (A) (A) (A) (A) (A)
                 (A) (A) (A) (A) (A) (A) (A) (A) (A) (A) (A) (A)
                 (A) (A) (A) (A) (A) (A) (A) (A) (A) (A) (A) (A)
                 (A) (A) (A) (A) (A) (A) (A) (A) (A) (A) (A) (A)
                 (A) (A) (A) (A) (A) (A) (A) (A) (A) (A) (A) (A)
                 (A) (A) (A) (A) (A) (A) (A) (A) (A) (A) (A) (A)
                 (A) (A) (A) (A) (A) (A) (A) (A) (A) (A) (A) (A)
                 (A) (A) (A) (A) (A) (A) (A) (A) (A) (A) (A) (A)
                 (A) (A) (A) (A) (A) (A) (A) (A) (A) (A) (A) (A)
                 (A) (A) (A) (A) (A) (A) (A) (A) (A) (A) (A) (A)
                 (A) (A) (A) (A) (A) (A) (A) (A) (A) (A) (A) (A)
                 (A) (A) (A) (A) (A) (A) (A) (A) (A) (A) (A) (A)
                 (A) (A) (A) (A) (A) (A) (A) (A) (A) (A) (A) (A)
                 (A) (A) (A) (A) (A) (A) (A) (A) (A) (A) (A) (A)
                 (A) (A) (A) (A) (A) (A) (A) (A) (A) (A) (A) (A)
                 (A) (A) (A) (A) (A) (A) (A) (A) (A) (A) (A) (A)
                 (A) (A) (A) (A) (A) (A) (A)
 The electronic state of the initial guess is 1-A.
 Requested convergence on RMS density matrix=1.00D-08 within 128 cycles.
 Requested convergence on MAX density matrix=1.00D-06.
 Requested convergence on             energy=1.00D-06.
 No special actions if energy rises.
 Integral accuracy reduced to 1.0D-05 until final iterations.
 Initial convergence to 1.0D-05 achieved.  Increase integral accuracy.
 SCF Done:  E(RPBE1PBE) =  -560.053667938     A.U. after   12 cycles
             Convg  =    0.8073D-08             -V/T =  2.0032

 **********************************************************************

            Population analysis using the SCF density.

 **********************************************************************

 Orbital symmetries:
       Occupied  (A) (A) (A) (A) (A) (A) (A) (A) (A) (A) (A) (A)
                 (A) (A) (A) (A) (A) (A) (A) (A) (A) (A) (A) (A)
                 (A) (A) (A) (A) (A)
       Virtual   (A) (A) (A) (A) (A) (A) (A) (A) (A) (A) (A) (A)
                 (A) (A) (A) (A) (A) (A) (A) (A) (A) (A) (A) (A)
                 (A) (A) (A) (A) (A) (A) (A) (A) (A) (A) (A) (A)
                 (A) (A) (A) (A) (A) (A) (A) (A) (A) (A) (A) (A)
                 (A) (A) (A) (A) (A) (A) (A) (A) (A) (A) (A) (A)
                 (A) (A) (A) (A) (A) (A) (A) (A) (A) (A) (A) (A)
                 (A) (A) (A) (A) (A) (A) (A) (A) (A) (A) (A) (A)
                 (A) (A) (A) (A) (A) (A) (A) (A) (A) (A) (A) (A)
                 (A) (A) (A) (A) (A) (A) (A) (A) (A) (A) (A) (A)
                 (A) (A) (A) (A) (A) (A) (A) (A) (A) (A) (A) (A)
                 (A) (A) (A) (A) (A) (A) (A) (A) (A) (A) (A) (A)
                 (A) (A) (A) (A) (A) (A) (A) (A) (A) (A) (A) (A)
                 (A) (A) (A) (A) (A) (A) (A) (A) (A) (A) (A) (A)
                 (A) (A) (A) (A) (A) (A) (A) (A) (A) (A) (A) (A)
                 (A) (A) (A) (A) (A) (A) (A) (A) (A) (A) (A) (A)
                 (A) (A) (A) (A) (A) (A) (A) (A) (A) (A) (A) (A)
                 (A) (A) (A) (A) (A) (A) (A) (A) (A) (A) (A) (A)
                 (A) (A) (A) (A) (A) (A) (A) (A) (A) (A) (A) (A)
                 (A) (A) (A) (A) (A) (A) (A)
 The electronic state is 1-A.
 Alpha  occ. eigenvalues --  -66.25317 -19.20245 -19.19233 -10.25904 -10.22040
 Alpha  occ. eigenvalues --  -10.21838  -5.32986  -3.66552  -3.66384  -3.66230
 Alpha  occ. eigenvalues --   -1.04235  -1.01797  -0.78775  -0.70020  -0.64504
 Alpha  occ. eigenvalues --   -0.56741  -0.50683  -0.46574  -0.46424  -0.46097
 Alpha  occ. eigenvalues --   -0.43563  -0.40859  -0.39388  -0.37056  -0.36789
 Alpha  occ. eigenvalues --   -0.35558  -0.31539  -0.30425  -0.29225
 Alpha virt. eigenvalues --    0.01648   0.05469   0.05964   0.07983   0.08938
 Alpha virt. eigenvalues --    0.09996   0.10221   0.11952   0.12680   0.13521
 Alpha virt. eigenvalues --    0.14065   0.15103   0.15665   0.16104   0.19053
 Alpha virt. eigenvalues --    0.21400   0.21834   0.23744   0.24339   0.24698
 Alpha virt. eigenvalues --    0.26532   0.27817   0.29465   0.30596   0.31041
 Alpha virt. eigenvalues --    0.34456   0.37288   0.39758   0.40551   0.40844
 Alpha virt. eigenvalues --    0.41781   0.42620   0.44040   0.45062   0.45726
 Alpha virt. eigenvalues --    0.47335   0.47478   0.48193   0.49223   0.50704
 Alpha virt. eigenvalues --    0.51199   0.53983   0.56018   0.56580   0.57838
 Alpha virt. eigenvalues --    0.60769   0.62595   0.64162   0.66748   0.69551
 Alpha virt. eigenvalues --    0.72468   0.74131   0.77153   0.78469   0.81065
 Alpha virt. eigenvalues --    0.82389   0.85055   0.86081   0.89378   0.91864
 Alpha virt. eigenvalues --    0.93420   0.95969   0.96513   0.99508   1.01133
 Alpha virt. eigenvalues --    1.04395   1.06940   1.08035   1.08877   1.11029
 Alpha virt. eigenvalues --    1.12128   1.12360   1.14620   1.17021   1.22482
 Alpha virt. eigenvalues --    1.27565   1.29281   1.31072   1.37556   1.39042
 Alpha virt. eigenvalues --    1.41817   1.45454   1.47448   1.50760   1.52219
 Alpha virt. eigenvalues --    1.53496   1.54221   1.55267   1.56689   1.57115
 Alpha virt. eigenvalues --    1.60187   1.61394   1.61778   1.64224   1.65863
 Alpha virt. eigenvalues --    1.67178   1.72410   1.74963   1.75724   1.79564
 Alpha virt. eigenvalues --    1.81867   1.83101   1.88752   1.90353   1.92991
 Alpha virt. eigenvalues --    1.94559   1.95918   1.99118   1.99317   2.04182
 Alpha virt. eigenvalues --    2.05388   2.09264   2.10931   2.12118   2.15572
 Alpha virt. eigenvalues --    2.16594   2.18996   2.27514   2.29648   2.30457
 Alpha virt. eigenvalues --    2.32747   2.33217   2.35077   2.35764   2.36215
 Alpha virt. eigenvalues --    2.38302   2.41787   2.45876   2.46739   2.48462
 Alpha virt. eigenvalues --    2.51622   2.52355   2.54265   2.56653   2.58346
 Alpha virt. eigenvalues --    2.60028   2.60972   2.65312   2.66376   2.71951
 Alpha virt. eigenvalues --    2.73213   2.78324   2.81020   2.84061   2.85033
 Alpha virt. eigenvalues --    2.89550   2.93621   2.96923   2.99374   3.03681
 Alpha virt. eigenvalues --    3.06106   3.08992   3.11201   3.11306   3.15314
 Alpha virt. eigenvalues --    3.21243   3.21788   3.23199   3.27721   3.31298
 Alpha virt. eigenvalues --    3.32025   3.33623   3.36897   3.40273   3.44278
 Alpha virt. eigenvalues --    3.45543   3.46948   3.50030   3.53124   3.54949
 Alpha virt. eigenvalues --    3.58599   3.59276   3.64057   3.66763   3.76952
 Alpha virt. eigenvalues --    3.80299   3.88508   3.91708   3.95407   4.02252
 Alpha virt. eigenvalues --    4.19913   4.23541   4.26443   4.33947   4.37798
 Alpha virt. eigenvalues --    4.41667   4.46281   4.53383   4.56919   4.78168
 Alpha virt. eigenvalues --    5.15445   5.16479   5.18173   5.19757   5.29045
 Alpha virt. eigenvalues --    5.31599   5.39106   5.41858   5.45803   5.50268
 Alpha virt. eigenvalues --    5.80192   5.87855   6.04550   6.24238   6.38517
 Alpha virt. eigenvalues --    6.40503   6.53661   6.57425   6.61743   6.69315
 Alpha virt. eigenvalues --    6.71709   6.78448   6.81895   7.00993   7.08367
 Alpha virt. eigenvalues --    7.13597   7.21299  11.88734  22.37160  22.40624
 Alpha virt. eigenvalues --   22.45373  43.62109  43.94259
          Condensed to atoms (all electrons):
              1          2          3          4          5          6
     1  H    0.553275   0.408452  -0.033871  -0.026555  -0.024459  -0.006774
     2  C    0.408452   4.932738   0.316630   0.404448   0.413602  -0.030878
     3  C   -0.033871   0.316630   5.056523  -0.042794  -0.039638   0.386923
     4  H   -0.026555   0.404448  -0.042794   0.573656  -0.026101  -0.004514
     5  H   -0.024459   0.413602  -0.039638  -0.026101   0.528734   0.007639
     6  H   -0.006774  -0.030878   0.386923  -0.004514   0.007639   0.574038
     7  Si   0.006469  -0.023046   0.391067  -0.003096  -0.007975  -0.028682
     8  H   -0.006986  -0.026792   0.375284   0.007763  -0.004033  -0.024830
     9  O   -0.000112  -0.002575  -0.031224   0.002027  -0.000155   0.000012
    10  O    0.000001  -0.004133  -0.030827  -0.000048   0.007814   0.001360
    11  H   -0.000143   0.001940  -0.039132   0.000208   0.000408   0.001358
    12  H   -0.000057  -0.000013  -0.002930   0.000911   0.000062   0.000030
    13  C    0.000003   0.000001   0.000846   0.000079  -0.000038  -0.000109
    14  H   -0.000003   0.000238  -0.000259  -0.000004  -0.000171  -0.000001
    15  H    0.000000  -0.000031  -0.000023  -0.000005   0.000085   0.000012
    16  H    0.000001  -0.000239   0.000787   0.000010   0.000020   0.000012
              7          8          9         10         11         12
     1  H    0.006469  -0.006986  -0.000112   0.000001  -0.000143  -0.000057
     2  C   -0.023046  -0.026792  -0.002575  -0.004133   0.001940  -0.000013
     3  C    0.391067   0.375284  -0.031224  -0.030827  -0.039132  -0.002930
     4  H   -0.003096   0.007763   0.002027  -0.000048   0.000208   0.000911
     5  H   -0.007975  -0.004033  -0.000155   0.007814   0.000408   0.000062
     6  H   -0.028682  -0.024830   0.000012   0.001360   0.001358   0.000030
     7  Si  11.910289  -0.008823   0.480312   0.458692   0.389254  -0.028687
     8  H   -0.008823   0.557026   0.000944   0.001038   0.000214  -0.000040
     9  O    0.480312   0.000944   7.847023  -0.044841  -0.025072   0.294267
    10  O    0.458692   0.001038  -0.044841   7.847536  -0.026700  -0.000812
    11  H    0.389254   0.000214  -0.025072  -0.026700   0.755572   0.006582
    12  H   -0.028687  -0.000040   0.294267  -0.000812   0.006582   0.418338
    13  C   -0.052554   0.000077  -0.013464   0.266031   0.003129   0.001006
    14  H    0.008029  -0.000008   0.000390  -0.039717  -0.000277   0.000017
    15  H   -0.016588  -0.000029  -0.000408  -0.043488   0.010882   0.000113
    16  H   -0.004744  -0.000008   0.010524  -0.045746  -0.001832   0.000388
             13         14         15         16
     1  H    0.000003  -0.000003   0.000000   0.000001
     2  C    0.000001   0.000238  -0.000031  -0.000239
     3  C    0.000846  -0.000259  -0.000023   0.000787
     4  H    0.000079  -0.000004  -0.000005   0.000010
     5  H   -0.000038  -0.000171   0.000085   0.000020
     6  H   -0.000109  -0.000001   0.000012   0.000012
     7  Si  -0.052554   0.008029  -0.016588  -0.004744
     8  H    0.000077  -0.000008  -0.000029  -0.000008
     9  O   -0.013464   0.000390  -0.000408   0.010524
    10  O    0.266031  -0.039717  -0.043488  -0.045746
    11  H    0.003129  -0.000277   0.010882  -0.001832
    12  H    0.001006   0.000017   0.000113   0.000388
    13  C    4.765329   0.400710   0.418026   0.409093
    14  H    0.400710   0.571647  -0.031730  -0.035069
    15  H    0.418026  -0.031730   0.593029  -0.045619
    16  H    0.409093  -0.035069  -0.045619   0.601828
 Mulliken atomic charges:
              1
     1  H    0.130759
     2  C   -0.390342
     3  C   -0.307363
     4  H    0.114015
     5  H    0.144207
     6  H    0.124404
     7  Si   0.530084
     8  H    0.129202
     9  O   -0.517649
    10  O   -0.346161
    11  H   -0.076391
    12  H    0.310825
    13  C   -0.198164
    14  H    0.126210
    15  H    0.115773
    16  H    0.110592
 Sum of Mulliken atomic charges =   0.00000
 Mulliken charges with hydrogens summed into heavy atoms:
              1
     2  C   -0.001361
     3  C   -0.053757
     7  Si   0.453694
     9  O   -0.206824
    10  O   -0.346161
    13  C    0.154410
 Sum of Mulliken charges with hydrogens summed into heavy atoms =   0.00000
 Electronic spatial extent (au):  <R**2>=            871.5510
 Charge=              0.0000 electrons
 Dipole moment (field-independent basis, Debye):
    X=             -0.8988    Y=             -0.4590    Z=             -1.1618  Tot=              1.5390
 Quadrupole moment (field-independent basis, Debye-Ang):
   XX=            -41.7926   YY=            -48.7765   ZZ=            -42.7494
   XY=             -2.3422   XZ=             -1.1768   YZ=             -2.2612
 Traceless Quadrupole moment (field-independent basis, Debye-Ang):
   XX=              2.6469   YY=             -4.3369   ZZ=              1.6901
   XY=             -2.3422   XZ=             -1.1768   YZ=             -2.2612
 Octapole moment (field-independent basis, Debye-Ang**2):
  XXX=             11.7237  YYY=             -5.3361  ZZZ=            -11.8001  XYY=             -1.6044
  XXY=             -4.1037  XXZ=             -0.1076  XZZ=              2.5524  YZZ=              4.7407
  YYZ=             -4.1021  XYZ=              0.2868
 Hexadecapole moment (field-independent basis, Debye-Ang**3):
 XXXX=           -721.9882 YYYY=           -286.0209 ZZZZ=           -160.3865 XXXY=             -9.4674
 XXXZ=             -6.5254 YYYX=            -11.7942 YYYZ=             -8.1527 ZZZX=             -8.1998
 ZZZY=            -21.9254 XXYY=           -165.9168 XXZZ=           -151.3669 YYZZ=            -64.7667
 XXYZ=             -1.7008 YYXZ=             -4.4061 ZZXY=              0.7603
 N-N= 3.296339973724D+02 E-N=-1.983298959769D+03  KE= 5.582605688633D+02
 1\1\GINC-TARSUS4\SP\RPBE1PBE\def2TZVP\C3H10O2Si1\RENATO\08-Aug-2018\0\
 \#SP PBE1PBE/Def2TZVP geom=connectivity\\Structure: 111\\0,1\H,0,0.,0.
 ,0.\C,0,1.093,0.,0.\C,0,1.655,1.421,0.\H,0,1.41,-0.56,-0.885\H,0,1.424
 ,-0.557,0.88\H,0,1.308,1.969,-0.883\Si,0,3.513,1.515,0.035\H,0,1.282,1
 .975,0.868\O,0,4.567,0.9,-1.074\O,0,3.968,0.824,1.454\H,0,4.029,2.906,
 -0.04\H,0,4.489,-0.03,-1.29\C,0,5.301,0.766,1.905\H,0,5.308,0.322,2.90
 2\H,0,5.747,1.766,1.967\H,0,5.921,0.153,1.244\\Version=EM64L-G09RevC.0
 1\State=1-A\HF=-560.0536679\RMSD=8.073e-09\Dipole=-0.3214749,-0.510608
 ,-0.0502873\Quadrupole=0.7992967,0.0191654,-0.8184621,-1.9763559,2.370
 4476,2.0901873\PG=C01 [X(C3H10O2Si1)]\\@


 A MUSTACHE HAIR ACROSS A CHIP IS LIKE A REDWOOD
 TREE FALLING THROUGH A HOUSING PROJECT.
 - AN IBM MANAGER IN EAST FISHKILL, NEW YORK
   AS QUOTED IN "FROM SANDS TO CIRCUITS", IBM INNOVATION JANUARY 1985.
 Job cpu time:  0 days  0 hours 12 minutes 38.8 seconds.
 File lengths (MBytes):  RWF=     40 Int=      0 D2E=      0 Chk=      3 Scr=      1
 Normal termination of Gaussian 09 at Wed Aug  8 11:20:37 2018.
