 Entering Gaussian System, Link 0=g09
 Initial command:
 /usr/local/gaussian09/g09/l1.exe /scratch/renato/Gau-4772.inp -scrdir=/scratch/renato/
 Entering Link 1 = /usr/local/gaussian09/g09/l1.exe PID=      4774.
  
 Copyright (c) 1988,1990,1992,1993,1995,1998,2003,2009,2011,
            Gaussian, Inc.  All Rights Reserved.
  
 This is part of the Gaussian(R) 09 program.  It is based on
 the Gaussian(R) 03 system (copyright 2003, Gaussian, Inc.),
 the Gaussian(R) 98 system (copyright 1998, Gaussian, Inc.),
 the Gaussian(R) 94 system (copyright 1995, Gaussian, Inc.),
 the Gaussian 92(TM) system (copyright 1992, Gaussian, Inc.),
 the Gaussian 90(TM) system (copyright 1990, Gaussian, Inc.),
 the Gaussian 88(TM) system (copyright 1988, Gaussian, Inc.),
 the Gaussian 86(TM) system (copyright 1986, Carnegie Mellon
 University), and the Gaussian 82(TM) system (copyright 1983,
 Carnegie Mellon University). Gaussian is a federally registered
 trademark of Gaussian, Inc.
  
 This software contains proprietary and confidential information,
 including trade secrets, belonging to Gaussian, Inc.
  
 This software is provided under written license and may be
 used, copied, transmitted, or stored only in accord with that
 written license.
  
 The following legend is applicable only to US Government
 contracts under FAR:
  
                    RESTRICTED RIGHTS LEGEND
  
 Use, reproduction and disclosure by the US Government is
 subject to restrictions as set forth in subparagraphs (a)
 and (c) of the Commercial Computer Software - Restricted
 Rights clause in FAR 52.227-19.
  
 Gaussian, Inc.
 340 Quinnipiac St., Bldg. 40, Wallingford CT 06492
  
  
 ---------------------------------------------------------------
 Warning -- This program may not be used in any manner that
 competes with the business of Gaussian, Inc. or will provide
 assistance to any competitor of Gaussian, Inc.  The licensee
 of this program is prohibited from giving any competitor of
 Gaussian, Inc. access to this program.  By using this program,
 the user acknowledges that Gaussian, Inc. is engaged in the
 business of creating and licensing software in the field of
 computational chemistry and represents and warrants to the
 licensee that it is not a competitor of Gaussian, Inc. and that
 it will not use this program in any manner prohibited above.
 ---------------------------------------------------------------
  

 Cite this work as:
 Gaussian 09, Revision C.01,
 M. J. Frisch, G. W. Trucks, H. B. Schlegel, G. E. Scuseria, 
 M. A. Robb, J. R. Cheeseman, G. Scalmani, V. Barone, B. Mennucci, 
 G. A. Petersson, H. Nakatsuji, M. Caricato, X. Li, H. P. Hratchian, 
 A. F. Izmaylov, J. Bloino, G. Zheng, J. L. Sonnenberg, M. Hada, 
 M. Ehara, K. Toyota, R. Fukuda, J. Hasegawa, M. Ishida, T. Nakajima, 
 Y. Honda, O. Kitao, H. Nakai, T. Vreven, J. A. Montgomery, Jr., 
 J. E. Peralta, F. Ogliaro, M. Bearpark, J. J. Heyd, E. Brothers, 
 K. N. Kudin, V. N. Staroverov, T. Keith, R. Kobayashi, J. Normand, 
 K. Raghavachari, A. Rendell, J. C. Burant, S. S. Iyengar, J. Tomasi, 
 M. Cossi, N. Rega, J. M. Millam, M. Klene, J. E. Knox, J. B. Cross, 
 V. Bakken, C. Adamo, J. Jaramillo, R. Gomperts, R. E. Stratmann, 
 O. Yazyev, A. J. Austin, R. Cammi, C. Pomelli, J. W. Ochterski, 
 R. L. Martin, K. Morokuma, V. G. Zakrzewski, G. A. Voth, 
 P. Salvador, J. J. Dannenberg, S. Dapprich, A. D. Daniels, 
 O. Farkas, J. B. Foresman, J. V. Ortiz, J. Cioslowski, 
 and D. J. Fox, Gaussian, Inc., Wallingford CT, 2010.
 
 ******************************************
 Gaussian 09:  EM64L-G09RevC.01 23-Sep-2011
                 8-Aug-2018 
 ******************************************
 %nproc=2
 Will use up to    2 processors via shared memory.
 %mem=256MB
 %RWF=a13.rwf
 %chk=a1313
 %NoSave
 --------------------------------------
 #SP PBE1PBE/Def2TZVP geom=connectivity
 --------------------------------------
 1/38=1,57=2/1;
 2/12=2,17=6,18=5,40=1/2;
 3/5=44,7=101,11=2,16=1,25=1,30=1,74=-13/1,2,3;
 4//1;
 5/5=2,38=5/2;
 6/7=2,8=2,9=2,10=2,28=1/1;
 99/5=1,9=1/99;
 -------------
 Structure: 13
 -------------
 Charge =  0 Multiplicity = 1
 Symbolic Z-Matrix:
 H                     0.        0.        0. 
 C                     1.093     0.        0. 
 C                     1.655     1.421     0. 
 H                     1.41     -0.56     -0.885 
 H                     1.424    -0.557     0.88 
 H                     1.308     1.969    -0.883 
 Si                    3.513     1.515     0.035 
 H                     1.282     1.975     0.868 
 O                     3.716     0.688    -1.376 
 O                     3.968     0.824     1.454 
 H                     4.029     2.906    -0.04 
 H                     3.298    -0.172    -1.45 
 C                     5.301     0.766     1.905 
 H                     5.308     0.322     2.902 
 H                     5.747     1.766     1.967 
 H                     5.921     0.153     1.244 
 
                          Input orientation:                          
 ---------------------------------------------------------------------
 Center     Atomic      Atomic             Coordinates (Angstroms)
 Number     Number       Type             X           Y           Z
 ---------------------------------------------------------------------
      1          1           0        0.000000    0.000000    0.000000
      2          6           0        1.093000    0.000000    0.000000
      3          6           0        1.655000    1.421000    0.000000
      4          1           0        1.410000   -0.560000   -0.885000
      5          1           0        1.424000   -0.557000    0.880000
      6          1           0        1.308000    1.969000   -0.883000
      7         14           0        3.513000    1.515000    0.035000
      8          1           0        1.282000    1.975000    0.868000
      9          8           0        3.716000    0.688000   -1.376000
     10          8           0        3.968000    0.824000    1.454000
     11          1           0        4.029000    2.906000   -0.040000
     12          1           0        3.298000   -0.172000   -1.450000
     13          6           0        5.301000    0.766000    1.905000
     14          1           0        5.308000    0.322000    2.902000
     15          1           0        5.747000    1.766000    1.967000
     16          1           0        5.921000    0.153000    1.244000
 ---------------------------------------------------------------------
                    Distance matrix (angstroms):
                    1          2          3          4          5
     1  H    0.000000
     2  C    1.093000   0.000000
     3  C    2.181345   1.528098   0.000000
     4  H    1.756395   1.094218   2.183486   0.000000
     5  H    1.764207   1.092799   2.177210   1.765058   0.000000
     6  H    2.523393   2.168611   1.095629   2.531057   3.082580
     7  Si   3.825914   2.855320   1.860706   3.094291   3.061230
     8  H    2.509497   2.165588   1.095203   3.084740   2.536007
     9  O    4.021862   3.040863   2.584257   2.667625   3.448598
    10  O    4.305591   3.325465   2.796515   3.732257   2.951029
    11  H    4.967824   4.131166   2.800482   4.425646   4.429988
    12  H    3.606784   2.644638   2.709169   2.008560   3.014797
    13  C    5.684750   4.682205   4.165497   4.968124   4.222805
    14  H    6.058065   5.127525   4.793101   5.505788   4.466160
    15  H    6.325809   5.352342   4.553304   5.688036   5.026552
    16  H    6.052205   4.988039   4.621051   5.038862   4.567232
                    6          7          8          9         10
     6  H    0.000000
     7  Si   2.431227   0.000000
     8  H    1.751203   2.425459   0.000000
     9  O    2.771728   1.648047   3.551938   0.000000
    10  O    3.721316   1.642579   2.980401   2.844451   0.000000
    11  H    2.998743   1.485517   3.039282   2.608139   2.563295
    12  H    2.977494   2.257746   3.747931   0.959062   3.142313
    13  C    5.016393   2.693482   4.323125   3.644622   1.408423
    14  H    5.747942   3.586776   4.803982   4.579269   2.035757
    15  H    5.279056   2.964183   4.603011   4.057425   2.077348
    16  H    5.394604   3.019137   4.998138   3.465927   2.075705
                   11         12         13         14         15
    11  H    0.000000
    12  H    3.463603   0.000000
    13  C    3.159210   4.018442   0.000000
    14  H    4.119255   4.819133   1.091418   0.000000
    15  H    2.877355   4.629183   1.096704   1.775410   0.000000
    16  H    3.578733   3.774042   1.094116   1.775752   1.776168
                   16
    16  H    0.000000
 Stoichiometry    C3H10O2Si
 Framework group  C1[X(C3H10O2Si)]
 Deg. of freedom    42
 Full point group                 C1      NOp   1
 Largest Abelian subgroup         C1      NOp   1
 Largest concise Abelian subgroup C1      NOp   1
                         Standard orientation:                         
 ---------------------------------------------------------------------
 Center     Atomic      Atomic             Coordinates (Angstroms)
 Number     Number       Type             X           Y           Z
 ---------------------------------------------------------------------
      1          1           0       -3.056920   -1.438008   -0.362110
      2          6           0       -2.103074   -0.942944   -0.561459
      3          6           0       -1.497575   -0.355698    0.712745
      4          1           0       -2.297921   -0.169152   -1.310188
      5          1           0       -1.435572   -1.680449   -1.013938
      6          1           0       -2.181213    0.375034    1.158920
      7         14           0        0.148339    0.477764    0.470808
      8          1           0       -1.360270   -1.141635    1.463024
      9          8           0       -0.420892    1.589901   -0.603988
     10          8           0        1.172746   -0.698625   -0.043748
     11          1           0        0.675152    1.101670    1.711764
     12          1           0       -0.890937    1.262881   -1.373349
     13          6           0        2.548507   -0.496408   -0.267453
     14          1           0        2.998746   -1.454859   -0.531745
     15          1           0        3.048544   -0.113605    0.630426
     16          1           0        2.721655    0.209521   -1.085239
 ---------------------------------------------------------------------
 Rotational constants (GHZ):      4.3204267      1.8723948      1.6034926
 Standard basis: def2TZVP (5D, 7F)
 There are   252 symmetry adapted basis functions of A   symmetry.
 Integral buffers will be    131072 words long.
 Raffenetti 2 integral format.
 Two-electron integral symmetry is turned on.
   252 basis functions,   404 primitive gaussians,   282 cartesian basis functions
    29 alpha electrons       29 beta electrons
       nuclear repulsion energy       331.3120385781 Hartrees.
 NAtoms=   16 NActive=   16 NUniq=   16 SFac= 1.00D+00 NAtFMM=   60 NAOKFM=F Big=F
 One-electron integrals computed using PRISM.
   1 Symmetry operations used in ECPInt.
 ECPInt:  NShTT=    5886 NPrTT=   17754 LenC2=    5780 LenP2D=   13940.
 LDataN:  DoStor=T MaxTD1= 6 Len=  172
 NBasis=   252 RedAO= T  NBF=   252
 NBsUse=   252 1.00D-06 NBFU=   252
 Harris functional with IExCor= 1009 diagonalized for initial guess.
 ExpMin= 7.01D-02 ExpMax= 4.48D+04 ExpMxC= 1.53D+03 IAcc=2 IRadAn=         4 AccDes= 0.00D+00
 HarFok:  IExCor= 1009 AccDes= 0.00D+00 IRadAn=         4 IDoV= 1
 ScaDFX=  1.000000  1.000000  1.000000  1.000000
 FoFCou: FMM=F IPFlag=           0 FMFlag=      100000 FMFlg1=           0
         NFxFlg=           0 DoJE=T BraDBF=F KetDBF=T FulRan=T
         Omega=  0.000000  0.000000  1.000000  0.000000  0.000000 ICntrl=     500 IOpCl=  0
         NMat0=    1 NMatS0=    1 NMatT0=    0 NMatD0=    1 NMtDS0=    0 NMtDT0=    0
         I1Cent=           4 NGrid=           0.
 Petite list used in FoFCou.
 Initial guess orbital symmetries:
       Occupied  (A) (A) (A) (A) (A) (A) (A) (A) (A) (A) (A) (A)
                 (A) (A) (A) (A) (A) (A) (A) (A) (A) (A) (A) (A)
                 (A) (A) (A) (A) (A)
       Virtual   (A) (A) (A) (A) (A) (A) (A) (A) (A) (A) (A) (A)
                 (A) (A) (A) (A) (A) (A) (A) (A) (A) (A) (A) (A)
                 (A) (A) (A) (A) (A) (A) (A) (A) (A) (A) (A) (A)
                 (A) (A) (A) (A) (A) (A) (A) (A) (A) (A) (A) (A)
                 (A) (A) (A) (A) (A) (A) (A) (A) (A) (A) (A) (A)
                 (A) (A) (A) (A) (A) (A) (A) (A) (A) (A) (A) (A)
                 (A) (A) (A) (A) (A) (A) (A) (A) (A) (A) (A) (A)
                 (A) (A) (A) (A) (A) (A) (A) (A) (A) (A) (A) (A)
                 (A) (A) (A) (A) (A) (A) (A) (A) (A) (A) (A) (A)
                 (A) (A) (A) (A) (A) (A) (A) (A) (A) (A) (A) (A)
                 (A) (A) (A) (A) (A) (A) (A) (A) (A) (A) (A) (A)
                 (A) (A) (A) (A) (A) (A) (A) (A) (A) (A) (A) (A)
                 (A) (A) (A) (A) (A) (A) (A) (A) (A) (A) (A) (A)
                 (A) (A) (A) (A) (A) (A) (A) (A) (A) (A) (A) (A)
                 (A) (A) (A) (A) (A) (A) (A) (A) (A) (A) (A) (A)
                 (A) (A) (A) (A) (A) (A) (A) (A) (A) (A) (A) (A)
                 (A) (A) (A) (A) (A) (A) (A) (A) (A) (A) (A) (A)
                 (A) (A) (A) (A) (A) (A) (A) (A) (A) (A) (A) (A)
                 (A) (A) (A) (A) (A) (A) (A)
 The electronic state of the initial guess is 1-A.
 Requested convergence on RMS density matrix=1.00D-08 within 128 cycles.
 Requested convergence on MAX density matrix=1.00D-06.
 Requested convergence on             energy=1.00D-06.
 No special actions if energy rises.
 Integral accuracy reduced to 1.0D-05 until final iterations.
 Initial convergence to 1.0D-05 achieved.  Increase integral accuracy.
 SCF Done:  E(RPBE1PBE) =  -560.046676387     A.U. after   13 cycles
             Convg  =    0.3275D-08             -V/T =  2.0032

 **********************************************************************

            Population analysis using the SCF density.

 **********************************************************************

 Orbital symmetries:
       Occupied  (A) (A) (A) (A) (A) (A) (A) (A) (A) (A) (A) (A)
                 (A) (A) (A) (A) (A) (A) (A) (A) (A) (A) (A) (A)
                 (A) (A) (A) (A) (A)
       Virtual   (A) (A) (A) (A) (A) (A) (A) (A) (A) (A) (A) (A)
                 (A) (A) (A) (A) (A) (A) (A) (A) (A) (A) (A) (A)
                 (A) (A) (A) (A) (A) (A) (A) (A) (A) (A) (A) (A)
                 (A) (A) (A) (A) (A) (A) (A) (A) (A) (A) (A) (A)
                 (A) (A) (A) (A) (A) (A) (A) (A) (A) (A) (A) (A)
                 (A) (A) (A) (A) (A) (A) (A) (A) (A) (A) (A) (A)
                 (A) (A) (A) (A) (A) (A) (A) (A) (A) (A) (A) (A)
                 (A) (A) (A) (A) (A) (A) (A) (A) (A) (A) (A) (A)
                 (A) (A) (A) (A) (A) (A) (A) (A) (A) (A) (A) (A)
                 (A) (A) (A) (A) (A) (A) (A) (A) (A) (A) (A) (A)
                 (A) (A) (A) (A) (A) (A) (A) (A) (A) (A) (A) (A)
                 (A) (A) (A) (A) (A) (A) (A) (A) (A) (A) (A) (A)
                 (A) (A) (A) (A) (A) (A) (A) (A) (A) (A) (A) (A)
                 (A) (A) (A) (A) (A) (A) (A) (A) (A) (A) (A) (A)
                 (A) (A) (A) (A) (A) (A) (A) (A) (A) (A) (A) (A)
                 (A) (A) (A) (A) (A) (A) (A) (A) (A) (A) (A) (A)
                 (A) (A) (A) (A) (A) (A) (A) (A) (A) (A) (A) (A)
                 (A) (A) (A) (A) (A) (A) (A) (A) (A) (A) (A) (A)
                 (A) (A) (A) (A) (A) (A) (A)
 The electronic state is 1-A.
 Alpha  occ. eigenvalues --  -66.25728 -19.20993 -19.19544 -10.27104 -10.21447
 Alpha  occ. eigenvalues --  -10.19448  -5.33377  -3.66896  -3.66827  -3.66614
 Alpha  occ. eigenvalues --   -1.04969  -1.02207  -0.77465  -0.71162  -0.63568
 Alpha  occ. eigenvalues --   -0.56380  -0.51744  -0.47482  -0.47134  -0.45785
 Alpha  occ. eigenvalues --   -0.43498  -0.41375  -0.38340  -0.37133  -0.36388
 Alpha  occ. eigenvalues --   -0.35010  -0.32576  -0.30906  -0.28254
 Alpha virt. eigenvalues --    0.02026   0.04894   0.05759   0.07869   0.09034
 Alpha virt. eigenvalues --    0.09397   0.11047   0.11695   0.11886   0.13006
 Alpha virt. eigenvalues --    0.13639   0.15093   0.16729   0.18189   0.20195
 Alpha virt. eigenvalues --    0.21734   0.22429   0.22626   0.25092   0.25437
 Alpha virt. eigenvalues --    0.26747   0.27041   0.28507   0.29828   0.31455
 Alpha virt. eigenvalues --    0.33714   0.35291   0.38394   0.40261   0.41094
 Alpha virt. eigenvalues --    0.41903   0.42842   0.43837   0.45313   0.45527
 Alpha virt. eigenvalues --    0.46424   0.47200   0.47951   0.48452   0.50234
 Alpha virt. eigenvalues --    0.51543   0.54333   0.56068   0.58124   0.58449
 Alpha virt. eigenvalues --    0.61408   0.65099   0.66256   0.67223   0.69155
 Alpha virt. eigenvalues --    0.72674   0.73254   0.76160   0.78032   0.79974
 Alpha virt. eigenvalues --    0.82809   0.84524   0.86380   0.89975   0.91560
 Alpha virt. eigenvalues --    0.93899   0.95342   0.97546   0.99143   0.99801
 Alpha virt. eigenvalues --    1.03899   1.05291   1.06492   1.10301   1.11373
 Alpha virt. eigenvalues --    1.13456   1.14361   1.17524   1.18154   1.19746
 Alpha virt. eigenvalues --    1.24445   1.31853   1.34490   1.37440   1.39687
 Alpha virt. eigenvalues --    1.43261   1.45365   1.47006   1.49291   1.51163
 Alpha virt. eigenvalues --    1.52314   1.53762   1.54577   1.57319   1.58656
 Alpha virt. eigenvalues --    1.60671   1.62104   1.64616   1.64996   1.66103
 Alpha virt. eigenvalues --    1.69050   1.72854   1.74823   1.76871   1.78870
 Alpha virt. eigenvalues --    1.81313   1.83603   1.86235   1.88256   1.93627
 Alpha virt. eigenvalues --    1.94680   1.95741   1.97787   2.01974   2.03303
 Alpha virt. eigenvalues --    2.05914   2.09403   2.11538   2.12705   2.15064
 Alpha virt. eigenvalues --    2.17720   2.21449   2.25074   2.28890   2.30768
 Alpha virt. eigenvalues --    2.32395   2.33621   2.34086   2.35191   2.36243
 Alpha virt. eigenvalues --    2.38326   2.40510   2.44420   2.47302   2.50074
 Alpha virt. eigenvalues --    2.51101   2.54077   2.54687   2.55756   2.58538
 Alpha virt. eigenvalues --    2.59994   2.62613   2.66142   2.69531   2.72194
 Alpha virt. eigenvalues --    2.73320   2.79061   2.81497   2.82104   2.84597
 Alpha virt. eigenvalues --    2.85148   2.94139   2.97258   2.97475   3.02422
 Alpha virt. eigenvalues --    3.05357   3.09949   3.11443   3.12790   3.15283
 Alpha virt. eigenvalues --    3.21454   3.23071   3.24617   3.29815   3.30307
 Alpha virt. eigenvalues --    3.32472   3.33213   3.37856   3.41044   3.43938
 Alpha virt. eigenvalues --    3.44272   3.46924   3.49155   3.52651   3.57120
 Alpha virt. eigenvalues --    3.57757   3.60576   3.64354   3.66331   3.77659
 Alpha virt. eigenvalues --    3.81890   3.89706   3.94270   3.97375   4.03735
 Alpha virt. eigenvalues --    4.18203   4.23948   4.25133   4.35021   4.36164
 Alpha virt. eigenvalues --    4.42396   4.47989   4.53586   4.57602   4.80223
 Alpha virt. eigenvalues --    5.16821   5.17218   5.17736   5.19245   5.27306
 Alpha virt. eigenvalues --    5.28795   5.38428   5.41685   5.45836   5.51598
 Alpha virt. eigenvalues --    5.79440   5.85357   6.02721   6.23823   6.42975
 Alpha virt. eigenvalues --    6.46432   6.56210   6.57606   6.59491   6.62669
 Alpha virt. eigenvalues --    6.68147   6.76341   6.83088   6.95973   7.07416
 Alpha virt. eigenvalues --    7.16542   7.28783  11.96098  22.37593  22.41060
 Alpha virt. eigenvalues --   22.47284  43.66610  43.95101
          Condensed to atoms (all electrons):
              1          2          3          4          5          6
     1  H    0.548124   0.407134  -0.032506  -0.023169  -0.023793  -0.006755
     2  C    0.407134   4.951865   0.307348   0.396775   0.411106  -0.026411
     3  C   -0.032506   0.307348   5.031049  -0.047556  -0.039863   0.388145
     4  H   -0.023169   0.396775  -0.047556   0.612695  -0.030139  -0.005748
     5  H   -0.023793   0.411106  -0.039863  -0.030139   0.537314   0.007769
     6  H   -0.006755  -0.026411   0.388145  -0.005748   0.007769   0.583955
     7  Si   0.008423  -0.020031   0.460818  -0.013006  -0.007820  -0.029057
     8  H   -0.006887  -0.026341   0.356937   0.010711  -0.003880  -0.027477
     9  O    0.000473  -0.008503  -0.053993   0.005839  -0.000544  -0.003748
    10  O    0.000023  -0.005122  -0.030246   0.001109   0.007325   0.001253
    11  H   -0.000070   0.001743  -0.032850   0.000187   0.000412   0.001280
    12  H   -0.000149   0.004154  -0.003861   0.004825  -0.000148   0.000262
    13  C    0.000011  -0.000251   0.003123   0.000077  -0.000084  -0.000155
    14  H   -0.000004   0.000196  -0.000503   0.000001  -0.000144   0.000000
    15  H    0.000002  -0.000049   0.000053   0.000005   0.000079  -0.000005
    16  H   -0.000001  -0.000018   0.000665  -0.000048   0.000003   0.000020
              7          8          9         10         11         12
     1  H    0.008423  -0.006887   0.000473   0.000023  -0.000070  -0.000149
     2  C   -0.020031  -0.026341  -0.008503  -0.005122   0.001743   0.004154
     3  C    0.460818   0.356937  -0.053993  -0.030246  -0.032850  -0.003861
     4  H   -0.013006   0.010711   0.005839   0.001109   0.000187   0.004825
     5  H   -0.007820  -0.003880  -0.000544   0.007325   0.000412  -0.000148
     6  H   -0.029057  -0.027477  -0.003748   0.001253   0.001280   0.000262
     7  Si  11.898159  -0.029351   0.439099   0.439819   0.392295  -0.029085
     8  H   -0.029351   0.616223   0.005739   0.003015   0.001415  -0.000187
     9  O    0.439099   0.005739   7.865734  -0.026842  -0.008806   0.308562
    10  O    0.439819   0.003015  -0.026842   7.837854  -0.024568  -0.001495
    11  H    0.392295   0.001415  -0.008806  -0.024568   0.701017   0.002502
    12  H   -0.029085  -0.000187   0.308562  -0.001495   0.002502   0.396681
    13  C   -0.045772   0.000061  -0.002666   0.255741   0.001577   0.000110
    14  H    0.007348   0.000017  -0.000006  -0.041453  -0.000205   0.000011
    15  H   -0.019187  -0.000011  -0.000404  -0.041330   0.009089  -0.000042
    16  H   -0.003779  -0.000039   0.003358  -0.043482  -0.001877   0.000327
             13         14         15         16
     1  H    0.000011  -0.000004   0.000002  -0.000001
     2  C   -0.000251   0.000196  -0.000049  -0.000018
     3  C    0.003123  -0.000503   0.000053   0.000665
     4  H    0.000077   0.000001   0.000005  -0.000048
     5  H   -0.000084  -0.000144   0.000079   0.000003
     6  H   -0.000155   0.000000  -0.000005   0.000020
     7  Si  -0.045772   0.007348  -0.019187  -0.003779
     8  H    0.000061   0.000017  -0.000011  -0.000039
     9  O   -0.002666  -0.000006  -0.000404   0.003358
    10  O    0.255741  -0.041453  -0.041330  -0.043482
    11  H    0.001577  -0.000205   0.009089  -0.001877
    12  H    0.000110   0.000011  -0.000042   0.000327
    13  C    4.775504   0.404039   0.417863   0.413370
    14  H    0.404039   0.559851  -0.028804  -0.032158
    15  H    0.417863  -0.028804   0.592067  -0.049334
    16  H    0.413370  -0.032158  -0.049334   0.588249
 Mulliken atomic charges:
              1
     1  H    0.129144
     2  C   -0.393596
     3  C   -0.306759
     4  H    0.087440
     5  H    0.142407
     6  H    0.116672
     7  Si   0.551125
     8  H    0.100054
     9  O   -0.523292
    10  O   -0.331602
    11  H   -0.043142
    12  H    0.317534
    13  C   -0.222548
    14  H    0.131815
    15  H    0.120007
    16  H    0.124743
 Sum of Mulliken atomic charges =   0.00000
 Mulliken charges with hydrogens summed into heavy atoms:
              1
     2  C   -0.034606
     3  C   -0.090033
     7  Si   0.507983
     9  O   -0.205758
    10  O   -0.331602
    13  C    0.154016
 Sum of Mulliken charges with hydrogens summed into heavy atoms =   0.00000
 Electronic spatial extent (au):  <R**2>=            858.4175
 Charge=              0.0000 electrons
 Dipole moment (field-independent basis, Debye):
    X=              0.6570    Y=             -0.5753    Z=             -0.5604  Tot=              1.0376
 Quadrupole moment (field-independent basis, Debye-Ang):
   XX=            -40.3203   YY=            -49.7122   ZZ=            -43.3649
   XY=             -0.1206   XZ=              0.6822   YZ=             -0.1402
 Traceless Quadrupole moment (field-independent basis, Debye-Ang):
   XX=              4.1455   YY=             -5.2464   ZZ=              1.1009
   XY=             -0.1206   XZ=              0.6822   YZ=             -0.1402
 Octapole moment (field-independent basis, Debye-Ang**2):
  XXX=             15.5127  YYY=             -7.0189  ZZZ=             -8.8910  XYY=              2.4132
  XXY=              0.0656  XXZ=             -4.1929  XZZ=             -0.6715  YZZ=              3.2975
  YYZ=             -0.4149  XYZ=              1.9594
 Hexadecapole moment (field-independent basis, Debye-Ang**3):
 XXXX=           -703.1325 YYYY=           -277.5557 ZZZZ=           -165.6702 XXXY=            -17.1980
 XXXZ=             -3.7764 YYYX=             -8.4316 YYYZ=             -0.1056 ZZZX=              3.9385
 ZZZY=            -13.9905 XXYY=           -159.9179 XXZZ=           -149.3941 YYZZ=            -69.5526
 XXYZ=             -2.6871 YYXZ=             -1.1619 ZZXY=             -8.8721
 N-N= 3.313120385781D+02 E-N=-1.986598993632D+03  KE= 5.582689330462D+02
 1\1\GINC-TARSUS4\SP\RPBE1PBE\def2TZVP\C3H10O2Si1\RENATO\08-Aug-2018\0\
 \#SP PBE1PBE/Def2TZVP geom=connectivity\\Structure: 13\\0,1\H,0,0.,0.,
 0.\C,0,1.093,0.,0.\C,0,1.655,1.421,0.\H,0,1.41,-0.56,-0.885\H,0,1.424,
 -0.557,0.88\H,0,1.308,1.969,-0.883\Si,0,3.513,1.515,0.035\H,0,1.282,1.
 975,0.868\O,0,3.716,0.688,-1.376\O,0,3.968,0.824,1.454\H,0,4.029,2.906
 ,-0.04\H,0,3.298,-0.172,-1.45\C,0,5.301,0.766,1.905\H,0,5.308,0.322,2.
 902\H,0,5.747,1.766,1.967\H,0,5.921,0.153,1.244\\Version=EM64L-G09RevC
 .01\State=1-A\HF=-560.0466764\RMSD=3.275e-09\Dipole=0.1632574,-0.24567
 67,0.2822051\Quadrupole=1.3591562,0.6035376,-1.9626938,0.0179364,2.843
 0915,1.3611568\PG=C01 [X(C3H10O2Si1)]\\@


 The lyf so short, the craft so long to lerne.
                             -- Chaucer
 Job cpu time:  0 days  0 hours 13 minutes 56.6 seconds.
 File lengths (MBytes):  RWF=     40 Int=      0 D2E=      0 Chk=      3 Scr=      1
 Normal termination of Gaussian 09 at Wed Aug  8 12:32:57 2018.
