 Entering Gaussian System, Link 0=g09
 Initial command:
 /usr/local/gaussian09/g09/l1.exe /scratch/renato/Gau-3625.inp -scrdir=/scratch/renato/
 Entering Link 1 = /usr/local/gaussian09/g09/l1.exe PID=      3627.
  
 Copyright (c) 1988,1990,1992,1993,1995,1998,2003,2009,2011,
            Gaussian, Inc.  All Rights Reserved.
  
 This is part of the Gaussian(R) 09 program.  It is based on
 the Gaussian(R) 03 system (copyright 2003, Gaussian, Inc.),
 the Gaussian(R) 98 system (copyright 1998, Gaussian, Inc.),
 the Gaussian(R) 94 system (copyright 1995, Gaussian, Inc.),
 the Gaussian 92(TM) system (copyright 1992, Gaussian, Inc.),
 the Gaussian 90(TM) system (copyright 1990, Gaussian, Inc.),
 the Gaussian 88(TM) system (copyright 1988, Gaussian, Inc.),
 the Gaussian 86(TM) system (copyright 1986, Carnegie Mellon
 University), and the Gaussian 82(TM) system (copyright 1983,
 Carnegie Mellon University). Gaussian is a federally registered
 trademark of Gaussian, Inc.
  
 This software contains proprietary and confidential information,
 including trade secrets, belonging to Gaussian, Inc.
  
 This software is provided under written license and may be
 used, copied, transmitted, or stored only in accord with that
 written license.
  
 The following legend is applicable only to US Government
 contracts under FAR:
  
                    RESTRICTED RIGHTS LEGEND
  
 Use, reproduction and disclosure by the US Government is
 subject to restrictions as set forth in subparagraphs (a)
 and (c) of the Commercial Computer Software - Restricted
 Rights clause in FAR 52.227-19.
  
 Gaussian, Inc.
 340 Quinnipiac St., Bldg. 40, Wallingford CT 06492
  
  
 ---------------------------------------------------------------
 Warning -- This program may not be used in any manner that
 competes with the business of Gaussian, Inc. or will provide
 assistance to any competitor of Gaussian, Inc.  The licensee
 of this program is prohibited from giving any competitor of
 Gaussian, Inc. access to this program.  By using this program,
 the user acknowledges that Gaussian, Inc. is engaged in the
 business of creating and licensing software in the field of
 computational chemistry and represents and warrants to the
 licensee that it is not a competitor of Gaussian, Inc. and that
 it will not use this program in any manner prohibited above.
 ---------------------------------------------------------------
  

 Cite this work as:
 Gaussian 09, Revision C.01,
 M. J. Frisch, G. W. Trucks, H. B. Schlegel, G. E. Scuseria, 
 M. A. Robb, J. R. Cheeseman, G. Scalmani, V. Barone, B. Mennucci, 
 G. A. Petersson, H. Nakatsuji, M. Caricato, X. Li, H. P. Hratchian, 
 A. F. Izmaylov, J. Bloino, G. Zheng, J. L. Sonnenberg, M. Hada, 
 M. Ehara, K. Toyota, R. Fukuda, J. Hasegawa, M. Ishida, T. Nakajima, 
 Y. Honda, O. Kitao, H. Nakai, T. Vreven, J. A. Montgomery, Jr., 
 J. E. Peralta, F. Ogliaro, M. Bearpark, J. J. Heyd, E. Brothers, 
 K. N. Kudin, V. N. Staroverov, T. Keith, R. Kobayashi, J. Normand, 
 K. Raghavachari, A. Rendell, J. C. Burant, S. S. Iyengar, J. Tomasi, 
 M. Cossi, N. Rega, J. M. Millam, M. Klene, J. E. Knox, J. B. Cross, 
 V. Bakken, C. Adamo, J. Jaramillo, R. Gomperts, R. E. Stratmann, 
 O. Yazyev, A. J. Austin, R. Cammi, C. Pomelli, J. W. Ochterski, 
 R. L. Martin, K. Morokuma, V. G. Zakrzewski, G. A. Voth, 
 P. Salvador, J. J. Dannenberg, S. Dapprich, A. D. Daniels, 
 O. Farkas, J. B. Foresman, J. V. Ortiz, J. Cioslowski, 
 and D. J. Fox, Gaussian, Inc., Wallingford CT, 2010.
 
 ******************************************
 Gaussian 09:  EM64L-G09RevC.01 23-Sep-2011
                 8-Aug-2018 
 ******************************************
 %nproc=2
 Will use up to    2 processors via shared memory.
 %mem=256MB
 %RWF=a13.rwf
 %chk=a1310
 %NoSave
 --------------------------------------
 #SP PBE1PBE/Def2TZVP geom=connectivity
 --------------------------------------
 1/38=1,57=2/1;
 2/12=2,17=6,18=5,40=1/2;
 3/5=44,7=101,11=2,16=1,25=1,30=1,74=-13/1,2,3;
 4//1;
 5/5=2,38=5/2;
 6/7=2,8=2,9=2,10=2,28=1/1;
 99/5=1,9=1/99;
 -------------
 Structure: 10
 -------------
 Charge =  0 Multiplicity = 1
 Symbolic Z-Matrix:
 H                     0.        0.        0. 
 C                     1.093     0.        0. 
 C                     1.655     1.421     0. 
 H                     1.41     -0.56     -0.885 
 H                     1.424    -0.557     0.88 
 H                     1.308     1.969    -0.883 
 Si                    3.513     1.515     0.035 
 H                     1.282     1.975     0.868 
 O                     3.688     0.685    -1.379 
 O                     3.968     0.824     1.454 
 H                     4.029     2.906    -0.04 
 H                     3.261    -0.17     -1.445 
 C                     5.301     0.766     1.905 
 H                     5.308     0.322     2.902 
 H                     5.747     1.766     1.967 
 H                     5.921     0.153     1.244 
 
                          Input orientation:                          
 ---------------------------------------------------------------------
 Center     Atomic      Atomic             Coordinates (Angstroms)
 Number     Number       Type             X           Y           Z
 ---------------------------------------------------------------------
      1          1           0        0.000000    0.000000    0.000000
      2          6           0        1.093000    0.000000    0.000000
      3          6           0        1.655000    1.421000    0.000000
      4          1           0        1.410000   -0.560000   -0.885000
      5          1           0        1.424000   -0.557000    0.880000
      6          1           0        1.308000    1.969000   -0.883000
      7         14           0        3.513000    1.515000    0.035000
      8          1           0        1.282000    1.975000    0.868000
      9          8           0        3.688000    0.685000   -1.379000
     10          8           0        3.968000    0.824000    1.454000
     11          1           0        4.029000    2.906000   -0.040000
     12          1           0        3.261000   -0.170000   -1.445000
     13          6           0        5.301000    0.766000    1.905000
     14          1           0        5.308000    0.322000    2.902000
     15          1           0        5.747000    1.766000    1.967000
     16          1           0        5.921000    0.153000    1.244000
 ---------------------------------------------------------------------
                    Distance matrix (angstroms):
                    1          2          3          4          5
     1  H    0.000000
     2  C    1.093000   0.000000
     3  C    2.181345   1.528098   0.000000
     4  H    1.756395   1.094218   2.183486   0.000000
     5  H    1.764207   1.092799   2.177210   1.765058   0.000000
     6  H    2.523393   2.168611   1.095629   2.531057   3.082580
     7  Si   3.825914   2.855320   1.860706   3.094291   3.061230
     8  H    2.509497   2.165588   1.095203   3.084740   2.536007
     9  O    3.996525   3.017431   2.564454   2.642602   3.430939
    10  O    4.305591   3.325465   2.796515   3.732257   2.951029
    11  H    4.967824   4.131166   2.800482   4.425646   4.429988
    12  H    3.570861   2.610967   2.683010   1.972790   2.988304
    13  C    5.684750   4.682205   4.165497   4.968124   4.222805
    14  H    6.058065   5.127525   4.793101   5.505788   4.466160
    15  H    6.325809   5.352342   4.553304   5.688036   5.026552
    16  H    6.052205   4.988039   4.621051   5.038862   4.567232
                    6          7          8          9         10
     6  H    0.000000
     7  Si   2.431227   0.000000
     8  H    1.751203   2.425459   0.000000
     9  O    2.749377   1.648915   3.535809   0.000000
    10  O    3.721316   1.642579   2.980401   2.850195   0.000000
    11  H    2.998743   1.485517   3.039282   2.615730   2.563295
    12  H    2.950487   2.256796   3.723901   0.957972   3.145169
    13  C    5.016393   2.693482   4.323125   3.659643   1.408423
    14  H    5.747942   3.586776   4.803982   4.591637   2.035757
    15  H    5.279056   2.964183   4.603011   4.074771   2.077348
    16  H    5.394604   3.019137   4.998138   3.485605   2.075705
                   11         12         13         14         15
    11  H    0.000000
    12  H    3.467798   0.000000
    13  C    3.159210   4.032393   0.000000
    14  H    4.119255   4.829977   1.091418   0.000000
    15  H    2.877355   4.644355   1.096704   1.775410   0.000000
    16  H    3.578733   3.796136   1.094116   1.775752   1.776168
                   16
    16  H    0.000000
 Stoichiometry    C3H10O2Si
 Framework group  C1[X(C3H10O2Si)]
 Deg. of freedom    42
 Full point group                 C1      NOp   1
 Largest Abelian subgroup         C1      NOp   1
 Largest concise Abelian subgroup C1      NOp   1
                         Standard orientation:                         
 ---------------------------------------------------------------------
 Center     Atomic      Atomic             Coordinates (Angstroms)
 Number     Number       Type             X           Y           Z
 ---------------------------------------------------------------------
      1          1           0       -3.048590   -1.447950   -0.350891
      2          6           0       -2.096615   -0.950865   -0.554111
      3          6           0       -1.491382   -0.354901    0.716167
      4          1           0       -2.294939   -0.181696   -1.306680
      5          1           0       -1.427306   -1.688597   -1.003541
      6          1           0       -2.176813    0.375972    1.159350
      7         14           0        0.151504    0.482592    0.467658
      8          1           0       -1.350559   -1.136393    1.470426
      9          8           0       -0.448807    1.576275   -0.610491
     10          8           0        1.179060   -0.693188   -0.041986
     11          1           0        0.677889    1.114784    1.704596
     12          1           0       -0.922334    1.233896   -1.369607
     13          6           0        2.553867   -0.487706   -0.268559
     14          1           0        3.006875   -1.446083   -0.528350
     15          1           0        3.053816   -0.098522    0.626621
     16          1           0        2.723667    0.214427   -1.090306
 ---------------------------------------------------------------------
 Rotational constants (GHZ):      4.3454941      1.8695370      1.6043841
 Standard basis: def2TZVP (5D, 7F)
 There are   252 symmetry adapted basis functions of A   symmetry.
 Integral buffers will be    131072 words long.
 Raffenetti 2 integral format.
 Two-electron integral symmetry is turned on.
   252 basis functions,   404 primitive gaussians,   282 cartesian basis functions
    29 alpha electrons       29 beta electrons
       nuclear repulsion energy       331.4466895336 Hartrees.
 NAtoms=   16 NActive=   16 NUniq=   16 SFac= 1.00D+00 NAtFMM=   60 NAOKFM=F Big=F
 One-electron integrals computed using PRISM.
   1 Symmetry operations used in ECPInt.
 ECPInt:  NShTT=    5886 NPrTT=   17754 LenC2=    5779 LenP2D=   13941.
 LDataN:  DoStor=T MaxTD1= 6 Len=  172
 NBasis=   252 RedAO= T  NBF=   252
 NBsUse=   252 1.00D-06 NBFU=   252
 Harris functional with IExCor= 1009 diagonalized for initial guess.
 ExpMin= 7.01D-02 ExpMax= 4.48D+04 ExpMxC= 1.53D+03 IAcc=2 IRadAn=         4 AccDes= 0.00D+00
 HarFok:  IExCor= 1009 AccDes= 0.00D+00 IRadAn=         4 IDoV= 1
 ScaDFX=  1.000000  1.000000  1.000000  1.000000
 FoFCou: FMM=F IPFlag=           0 FMFlag=      100000 FMFlg1=           0
         NFxFlg=           0 DoJE=T BraDBF=F KetDBF=T FulRan=T
         Omega=  0.000000  0.000000  1.000000  0.000000  0.000000 ICntrl=     500 IOpCl=  0
         NMat0=    1 NMatS0=    1 NMatT0=    0 NMatD0=    1 NMtDS0=    0 NMtDT0=    0
         I1Cent=           4 NGrid=           0.
 Petite list used in FoFCou.
 Initial guess orbital symmetries:
       Occupied  (A) (A) (A) (A) (A) (A) (A) (A) (A) (A) (A) (A)
                 (A) (A) (A) (A) (A) (A) (A) (A) (A) (A) (A) (A)
                 (A) (A) (A) (A) (A)
       Virtual   (A) (A) (A) (A) (A) (A) (A) (A) (A) (A) (A) (A)
                 (A) (A) (A) (A) (A) (A) (A) (A) (A) (A) (A) (A)
                 (A) (A) (A) (A) (A) (A) (A) (A) (A) (A) (A) (A)
                 (A) (A) (A) (A) (A) (A) (A) (A) (A) (A) (A) (A)
                 (A) (A) (A) (A) (A) (A) (A) (A) (A) (A) (A) (A)
                 (A) (A) (A) (A) (A) (A) (A) (A) (A) (A) (A) (A)
                 (A) (A) (A) (A) (A) (A) (A) (A) (A) (A) (A) (A)
                 (A) (A) (A) (A) (A) (A) (A) (A) (A) (A) (A) (A)
                 (A) (A) (A) (A) (A) (A) (A) (A) (A) (A) (A) (A)
                 (A) (A) (A) (A) (A) (A) (A) (A) (A) (A) (A) (A)
                 (A) (A) (A) (A) (A) (A) (A) (A) (A) (A) (A) (A)
                 (A) (A) (A) (A) (A) (A) (A) (A) (A) (A) (A) (A)
                 (A) (A) (A) (A) (A) (A) (A) (A) (A) (A) (A) (A)
                 (A) (A) (A) (A) (A) (A) (A) (A) (A) (A) (A) (A)
                 (A) (A) (A) (A) (A) (A) (A) (A) (A) (A) (A) (A)
                 (A) (A) (A) (A) (A) (A) (A) (A) (A) (A) (A) (A)
                 (A) (A) (A) (A) (A) (A) (A) (A) (A) (A) (A) (A)
                 (A) (A) (A) (A) (A) (A) (A) (A) (A) (A) (A) (A)
                 (A) (A) (A) (A) (A) (A) (A)
 The electronic state of the initial guess is 1-A.
 Requested convergence on RMS density matrix=1.00D-08 within 128 cycles.
 Requested convergence on MAX density matrix=1.00D-06.
 Requested convergence on             energy=1.00D-06.
 No special actions if energy rises.
 Integral accuracy reduced to 1.0D-05 until final iterations.
 Initial convergence to 1.0D-05 achieved.  Increase integral accuracy.
 SCF Done:  E(RPBE1PBE) =  -560.044887964     A.U. after   13 cycles
             Convg  =    0.3336D-08             -V/T =  2.0032

 **********************************************************************

            Population analysis using the SCF density.

 **********************************************************************

 Orbital symmetries:
       Occupied  (A) (A) (A) (A) (A) (A) (A) (A) (A) (A) (A) (A)
                 (A) (A) (A) (A) (A) (A) (A) (A) (A) (A) (A) (A)
                 (A) (A) (A) (A) (A)
       Virtual   (A) (A) (A) (A) (A) (A) (A) (A) (A) (A) (A) (A)
                 (A) (A) (A) (A) (A) (A) (A) (A) (A) (A) (A) (A)
                 (A) (A) (A) (A) (A) (A) (A) (A) (A) (A) (A) (A)
                 (A) (A) (A) (A) (A) (A) (A) (A) (A) (A) (A) (A)
                 (A) (A) (A) (A) (A) (A) (A) (A) (A) (A) (A) (A)
                 (A) (A) (A) (A) (A) (A) (A) (A) (A) (A) (A) (A)
                 (A) (A) (A) (A) (A) (A) (A) (A) (A) (A) (A) (A)
                 (A) (A) (A) (A) (A) (A) (A) (A) (A) (A) (A) (A)
                 (A) (A) (A) (A) (A) (A) (A) (A) (A) (A) (A) (A)
                 (A) (A) (A) (A) (A) (A) (A) (A) (A) (A) (A) (A)
                 (A) (A) (A) (A) (A) (A) (A) (A) (A) (A) (A) (A)
                 (A) (A) (A) (A) (A) (A) (A) (A) (A) (A) (A) (A)
                 (A) (A) (A) (A) (A) (A) (A) (A) (A) (A) (A) (A)
                 (A) (A) (A) (A) (A) (A) (A) (A) (A) (A) (A) (A)
                 (A) (A) (A) (A) (A) (A) (A) (A) (A) (A) (A) (A)
                 (A) (A) (A) (A) (A) (A) (A) (A) (A) (A) (A) (A)
                 (A) (A) (A) (A) (A) (A) (A) (A) (A) (A) (A) (A)
                 (A) (A) (A) (A) (A) (A) (A) (A) (A) (A) (A) (A)
                 (A) (A) (A) (A) (A) (A) (A)
 The electronic state is 1-A.
 Alpha  occ. eigenvalues --  -66.25766 -19.21050 -19.19465 -10.27139 -10.21444
 Alpha  occ. eigenvalues --  -10.19376  -5.33412  -3.66932  -3.66864  -3.66647
 Alpha  occ. eigenvalues --   -1.05007  -1.02193  -0.77432  -0.71199  -0.63557
 Alpha  occ. eigenvalues --   -0.56352  -0.51771  -0.47519  -0.47166  -0.45799
 Alpha  occ. eigenvalues --   -0.43499  -0.41412  -0.38298  -0.37111  -0.36372
 Alpha  occ. eigenvalues --   -0.34967  -0.32608  -0.30943  -0.28121
 Alpha virt. eigenvalues --    0.01963   0.04861   0.05734   0.07836   0.09042
 Alpha virt. eigenvalues --    0.09358   0.11043   0.11693   0.11899   0.12988
 Alpha virt. eigenvalues --    0.13653   0.15084   0.16749   0.18218   0.20247
 Alpha virt. eigenvalues --    0.21771   0.22452   0.22583   0.25091   0.25415
 Alpha virt. eigenvalues --    0.26732   0.26970   0.28466   0.29813   0.31497
 Alpha virt. eigenvalues --    0.33868   0.35233   0.38379   0.40275   0.41148
 Alpha virt. eigenvalues --    0.41881   0.42883   0.43862   0.45284   0.45503
 Alpha virt. eigenvalues --    0.46437   0.47188   0.47910   0.48418   0.50218
 Alpha virt. eigenvalues --    0.51552   0.54418   0.56131   0.58168   0.58340
 Alpha virt. eigenvalues --    0.61447   0.65137   0.66248   0.67306   0.69365
 Alpha virt. eigenvalues --    0.72642   0.73241   0.76208   0.77811   0.80073
 Alpha virt. eigenvalues --    0.82749   0.84609   0.86385   0.90090   0.91595
 Alpha virt. eigenvalues --    0.93963   0.95339   0.97574   0.99053   0.99803
 Alpha virt. eigenvalues --    1.03791   1.05152   1.06463   1.10367   1.11291
 Alpha virt. eigenvalues --    1.13504   1.14394   1.17383   1.18283   1.19653
 Alpha virt. eigenvalues --    1.24475   1.31733   1.34957   1.37525   1.39642
 Alpha virt. eigenvalues --    1.43343   1.45236   1.46989   1.49247   1.51138
 Alpha virt. eigenvalues --    1.52322   1.53714   1.54491   1.57307   1.58685
 Alpha virt. eigenvalues --    1.60735   1.62060   1.64648   1.65107   1.66025
 Alpha virt. eigenvalues --    1.68977   1.72962   1.74627   1.76728   1.78990
 Alpha virt. eigenvalues --    1.81203   1.83771   1.86215   1.88387   1.93534
 Alpha virt. eigenvalues --    1.94595   1.95680   1.97903   2.02120   2.03217
 Alpha virt. eigenvalues --    2.05924   2.09390   2.11436   2.12678   2.15250
 Alpha virt. eigenvalues --    2.17702   2.21399   2.25075   2.29187   2.30826
 Alpha virt. eigenvalues --    2.32386   2.33689   2.34108   2.35291   2.36282
 Alpha virt. eigenvalues --    2.38490   2.40652   2.44434   2.47371   2.49992
 Alpha virt. eigenvalues --    2.51202   2.54347   2.54697   2.55748   2.58616
 Alpha virt. eigenvalues --    2.60008   2.62848   2.66190   2.69599   2.72117
 Alpha virt. eigenvalues --    2.73377   2.79147   2.81583   2.82023   2.84750
 Alpha virt. eigenvalues --    2.85169   2.94186   2.97241   2.97702   3.02510
 Alpha virt. eigenvalues --    3.05475   3.09930   3.11473   3.13093   3.15334
 Alpha virt. eigenvalues --    3.21392   3.23105   3.24588   3.29963   3.30420
 Alpha virt. eigenvalues --    3.32468   3.33306   3.37905   3.41071   3.43815
 Alpha virt. eigenvalues --    3.44183   3.47021   3.49262   3.52583   3.57166
 Alpha virt. eigenvalues --    3.57963   3.60530   3.64351   3.66460   3.77748
 Alpha virt. eigenvalues --    3.81896   3.89837   3.94403   3.97513   4.03853
 Alpha virt. eigenvalues --    4.18168   4.23898   4.25163   4.35076   4.36126
 Alpha virt. eigenvalues --    4.42419   4.48051   4.53554   4.57636   4.80363
 Alpha virt. eigenvalues --    5.16907   5.17271   5.17825   5.19306   5.27219
 Alpha virt. eigenvalues --    5.28786   5.38431   5.41669   5.45946   5.51858
 Alpha virt. eigenvalues --    5.79414   5.85293   6.02682   6.24302   6.43098
 Alpha virt. eigenvalues --    6.46625   6.56272   6.57440   6.59385   6.62401
 Alpha virt. eigenvalues --    6.68293   6.76228   6.83168   6.95989   7.07708
 Alpha virt. eigenvalues --    7.16550   7.29145  11.96184  22.37624  22.41038
 Alpha virt. eigenvalues --   22.47422  43.67031  43.95135
          Condensed to atoms (all electrons):
              1          2          3          4          5          6
     1  H    0.548028   0.407153  -0.032579  -0.023103  -0.023719  -0.006724
     2  C    0.407153   4.952153   0.307254   0.396310   0.411048  -0.026184
     3  C   -0.032579   0.307254   5.032693  -0.047579  -0.039874   0.388289
     4  H   -0.023103   0.396310  -0.047579   0.614403  -0.030212  -0.005812
     5  H   -0.023719   0.411048  -0.039874  -0.030212   0.537298   0.007754
     6  H   -0.006724  -0.026184   0.388289  -0.005812   0.007754   0.584167
     7  Si   0.008443  -0.020132   0.462440  -0.013304  -0.007824  -0.029106
     8  H   -0.006923  -0.026207   0.355723   0.010820  -0.003838  -0.027528
     9  O    0.000510  -0.009310  -0.055680   0.005575  -0.000517  -0.004011
    10  O    0.000022  -0.005107  -0.030134   0.001137   0.007318   0.001249
    11  H   -0.000068   0.001741  -0.032765   0.000186   0.000412   0.001275
    12  H   -0.000152   0.004589  -0.004099   0.005035  -0.000168   0.000285
    13  C    0.000011  -0.000267   0.003186   0.000075  -0.000084  -0.000157
    14  H   -0.000004   0.000195  -0.000505   0.000002  -0.000143   0.000000
    15  H    0.000002  -0.000049   0.000060   0.000005   0.000079  -0.000005
    16  H   -0.000001  -0.000012   0.000651  -0.000050   0.000003   0.000021
              7          8          9         10         11         12
     1  H    0.008443  -0.006923   0.000510   0.000022  -0.000068  -0.000152
     2  C   -0.020132  -0.026207  -0.009310  -0.005107   0.001741   0.004589
     3  C    0.462440   0.355723  -0.055680  -0.030134  -0.032765  -0.004099
     4  H   -0.013304   0.010820   0.005575   0.001137   0.000186   0.005035
     5  H   -0.007824  -0.003838  -0.000517   0.007318   0.000412  -0.000168
     6  H   -0.029106  -0.027528  -0.004011   0.001249   0.001275   0.000285
     7  Si  11.899952  -0.030318   0.437124   0.439582   0.392244  -0.029230
     8  H   -0.030318   0.618904   0.006094   0.003074   0.001453  -0.000213
     9  O    0.437124   0.006094   7.867582  -0.026369  -0.008472   0.309347
    10  O    0.439582   0.003074  -0.026369   7.837256  -0.024451  -0.001536
    11  H    0.392244   0.001453  -0.008472  -0.024451   0.699283   0.002432
    12  H   -0.029230  -0.000213   0.309347  -0.001536   0.002432   0.396911
    13  C   -0.045661   0.000057  -0.002542   0.255375   0.001540   0.000086
    14  H    0.007321   0.000019  -0.000008  -0.041427  -0.000205   0.000010
    15  H   -0.019231  -0.000010  -0.000398  -0.041266   0.009029  -0.000042
    16  H   -0.003748  -0.000041   0.003230  -0.043466  -0.001865   0.000329
             13         14         15         16
     1  H    0.000011  -0.000004   0.000002  -0.000001
     2  C   -0.000267   0.000195  -0.000049  -0.000012
     3  C    0.003186  -0.000505   0.000060   0.000651
     4  H    0.000075   0.000002   0.000005  -0.000050
     5  H   -0.000084  -0.000143   0.000079   0.000003
     6  H   -0.000157   0.000000  -0.000005   0.000021
     7  Si  -0.045661   0.007321  -0.019231  -0.003748
     8  H    0.000057   0.000019  -0.000010  -0.000041
     9  O   -0.002542  -0.000008  -0.000398   0.003230
    10  O    0.255375  -0.041427  -0.041266  -0.043466
    11  H    0.001540  -0.000205   0.009029  -0.001865
    12  H    0.000086   0.000010  -0.000042   0.000329
    13  C    4.775974   0.404111   0.417851   0.413390
    14  H    0.404111   0.559453  -0.028734  -0.032079
    15  H    0.417851  -0.028734   0.591966  -0.049380
    16  H    0.413390  -0.032079  -0.049380   0.588118
 Mulliken atomic charges:
              1
     1  H    0.129103
     2  C   -0.393175
     3  C   -0.307081
     4  H    0.086511
     5  H    0.142467
     6  H    0.116487
     7  Si   0.551447
     8  H    0.098936
     9  O   -0.522153
    10  O   -0.331258
    11  H   -0.041770
    12  H    0.316417
    13  C   -0.222946
    14  H    0.131995
    15  H    0.120123
    16  H    0.124898
 Sum of Mulliken atomic charges =   0.00000
 Mulliken charges with hydrogens summed into heavy atoms:
              1
     2  C   -0.035094
     3  C   -0.091658
     7  Si   0.509677
     9  O   -0.205737
    10  O   -0.331258
    13  C    0.154071
 Sum of Mulliken charges with hydrogens summed into heavy atoms =   0.00000
 Electronic spatial extent (au):  <R**2>=            857.9477
 Charge=              0.0000 electrons
 Dipole moment (field-independent basis, Debye):
    X=              0.7108    Y=             -0.5736    Z=             -0.5386  Tot=              1.0604
 Quadrupole moment (field-independent basis, Debye-Ang):
   XX=            -40.2779   YY=            -49.7090   ZZ=            -43.4218
   XY=             -0.0158   XZ=              0.7014   YZ=             -0.0182
 Traceless Quadrupole moment (field-independent basis, Debye-Ang):
   XX=              4.1917   YY=             -5.2394   ZZ=              1.0477
   XY=             -0.0158   XZ=              0.7014   YZ=             -0.0182
 Octapole moment (field-independent basis, Debye-Ang**2):
  XXX=             15.4879  YYY=             -6.9834  ZZZ=             -8.7607  XYY=              2.6428
  XXY=              0.0776  XXZ=             -4.3478  XZZ=             -0.6712  YZZ=              3.1403
  YYZ=             -0.2245  XYZ=              1.8607
 Hexadecapole moment (field-independent basis, Debye-Ang**3):
 XXXX=           -703.3905 YYYY=           -276.1441 ZZZZ=           -165.4293 XXXY=            -17.4120
 XXXZ=             -3.4863 YYYX=             -8.1647 YYYZ=              0.2767 ZZZX=              4.2562
 ZZZY=            -13.5512 XXYY=           -159.9643 XXZZ=           -149.3262 YYZZ=            -69.7845
 XXYZ=             -2.7268 YYXZ=             -1.3392 ZZXY=             -8.8602
 N-N= 3.314466895336D+02 E-N=-1.986867581651D+03  KE= 5.582735771123D+02
 1\1\GINC-TARSUS4\SP\RPBE1PBE\def2TZVP\C3H10O2Si1\RENATO\08-Aug-2018\0\
 \#SP PBE1PBE/Def2TZVP geom=connectivity\\Structure: 10\\0,1\H,0,0.,0.,
 0.\C,0,1.093,0.,0.\C,0,1.655,1.421,0.\H,0,1.41,-0.56,-0.885\H,0,1.424,
 -0.557,0.88\H,0,1.308,1.969,-0.883\Si,0,3.513,1.515,0.035\H,0,1.282,1.
 975,0.868\O,0,3.688,0.685,-1.379\O,0,3.968,0.824,1.454\H,0,4.029,2.906
 ,-0.04\H,0,3.261,-0.17,-1.445\C,0,5.301,0.766,1.905\H,0,5.308,0.322,2.
 902\H,0,5.747,1.766,1.967\H,0,5.921,0.153,1.244\\Version=EM64L-G09RevC
 .01\State=1-A\HF=-560.044888\RMSD=3.336e-09\Dipole=0.1803217,-0.236306
 8,0.2927238\Quadrupole=1.4093919,0.6017352,-2.0111271,0.0798994,2.8438
 777,1.3145518\PG=C01 [X(C3H10O2Si1)]\\@


 CURIOUSER AND CURIOUSER

                  -- ALICE, IN WONDERLAND
 Job cpu time:  0 days  0 hours 14 minutes  8.5 seconds.
 File lengths (MBytes):  RWF=     40 Int=      0 D2E=      0 Chk=      3 Scr=      1
 Normal termination of Gaussian 09 at Wed Aug  8 11:08:01 2018.
