 Entering Gaussian System, Link 0=g09
 Initial command:
 /usr/local/gaussian09/g09/l1.exe /scratch/renato/Gau-3895.inp -scrdir=/scratch/renato/
 Entering Link 1 = /usr/local/gaussian09/g09/l1.exe PID=      3897.
  
 Copyright (c) 1988,1990,1992,1993,1995,1998,2003,2009,2011,
            Gaussian, Inc.  All Rights Reserved.
  
 This is part of the Gaussian(R) 09 program.  It is based on
 the Gaussian(R) 03 system (copyright 2003, Gaussian, Inc.),
 the Gaussian(R) 98 system (copyright 1998, Gaussian, Inc.),
 the Gaussian(R) 94 system (copyright 1995, Gaussian, Inc.),
 the Gaussian 92(TM) system (copyright 1992, Gaussian, Inc.),
 the Gaussian 90(TM) system (copyright 1990, Gaussian, Inc.),
 the Gaussian 88(TM) system (copyright 1988, Gaussian, Inc.),
 the Gaussian 86(TM) system (copyright 1986, Carnegie Mellon
 University), and the Gaussian 82(TM) system (copyright 1983,
 Carnegie Mellon University). Gaussian is a federally registered
 trademark of Gaussian, Inc.
  
 This software contains proprietary and confidential information,
 including trade secrets, belonging to Gaussian, Inc.
  
 This software is provided under written license and may be
 used, copied, transmitted, or stored only in accord with that
 written license.
  
 The following legend is applicable only to US Government
 contracts under FAR:
  
                    RESTRICTED RIGHTS LEGEND
  
 Use, reproduction and disclosure by the US Government is
 subject to restrictions as set forth in subparagraphs (a)
 and (c) of the Commercial Computer Software - Restricted
 Rights clause in FAR 52.227-19.
  
 Gaussian, Inc.
 340 Quinnipiac St., Bldg. 40, Wallingford CT 06492
  
  
 ---------------------------------------------------------------
 Warning -- This program may not be used in any manner that
 competes with the business of Gaussian, Inc. or will provide
 assistance to any competitor of Gaussian, Inc.  The licensee
 of this program is prohibited from giving any competitor of
 Gaussian, Inc. access to this program.  By using this program,
 the user acknowledges that Gaussian, Inc. is engaged in the
 business of creating and licensing software in the field of
 computational chemistry and represents and warrants to the
 licensee that it is not a competitor of Gaussian, Inc. and that
 it will not use this program in any manner prohibited above.
 ---------------------------------------------------------------
  

 Cite this work as:
 Gaussian 09, Revision C.01,
 M. J. Frisch, G. W. Trucks, H. B. Schlegel, G. E. Scuseria, 
 M. A. Robb, J. R. Cheeseman, G. Scalmani, V. Barone, B. Mennucci, 
 G. A. Petersson, H. Nakatsuji, M. Caricato, X. Li, H. P. Hratchian, 
 A. F. Izmaylov, J. Bloino, G. Zheng, J. L. Sonnenberg, M. Hada, 
 M. Ehara, K. Toyota, R. Fukuda, J. Hasegawa, M. Ishida, T. Nakajima, 
 Y. Honda, O. Kitao, H. Nakai, T. Vreven, J. A. Montgomery, Jr., 
 J. E. Peralta, F. Ogliaro, M. Bearpark, J. J. Heyd, E. Brothers, 
 K. N. Kudin, V. N. Staroverov, T. Keith, R. Kobayashi, J. Normand, 
 K. Raghavachari, A. Rendell, J. C. Burant, S. S. Iyengar, J. Tomasi, 
 M. Cossi, N. Rega, J. M. Millam, M. Klene, J. E. Knox, J. B. Cross, 
 V. Bakken, C. Adamo, J. Jaramillo, R. Gomperts, R. E. Stratmann, 
 O. Yazyev, A. J. Austin, R. Cammi, C. Pomelli, J. W. Ochterski, 
 R. L. Martin, K. Morokuma, V. G. Zakrzewski, G. A. Voth, 
 P. Salvador, J. J. Dannenberg, S. Dapprich, A. D. Daniels, 
 O. Farkas, J. B. Foresman, J. V. Ortiz, J. Cioslowski, 
 and D. J. Fox, Gaussian, Inc., Wallingford CT, 2010.
 
 ******************************************
 Gaussian 09:  EM64L-G09RevC.01 23-Sep-2011
                 8-Aug-2018 
 ******************************************
 %nproc=2
 Will use up to    2 processors via shared memory.
 %mem=256MB
 %RWF=a13.rwf
 %chk=a13112
 %NoSave
 --------------------------------------
 #SP PBE1PBE/Def2TZVP geom=connectivity
 --------------------------------------
 1/38=1,57=2/1;
 2/12=2,17=6,18=5,40=1/2;
 3/5=44,7=101,11=2,16=1,25=1,30=1,74=-13/1,2,3;
 4//1;
 5/5=2,38=5/2;
 6/7=2,8=2,9=2,10=2,28=1/1;
 99/5=1,9=1/99;
 --------------
 Structure: 112
 --------------
 Charge =  0 Multiplicity = 1
 Symbolic Z-Matrix:
 H                     0.        0.        0. 
 C                     1.093     0.        0. 
 C                     1.655     1.421     0. 
 H                     1.41     -0.56     -0.885 
 H                     1.424    -0.557     0.88 
 H                     1.308     1.969    -0.883 
 Si                    3.513     1.515     0.035 
 H                     1.282     1.975     0.868 
 O                     4.574     0.904    -1.069 
 O                     3.968     0.824     1.454 
 H                     4.029     2.906    -0.04 
 H                     4.5      -0.027    -1.286 
 C                     5.301     0.766     1.905 
 H                     5.308     0.322     2.902 
 H                     5.747     1.766     1.967 
 H                     5.921     0.153     1.244 
 
                          Input orientation:                          
 ---------------------------------------------------------------------
 Center     Atomic      Atomic             Coordinates (Angstroms)
 Number     Number       Type             X           Y           Z
 ---------------------------------------------------------------------
      1          1           0        0.000000    0.000000    0.000000
      2          6           0        1.093000    0.000000    0.000000
      3          6           0        1.655000    1.421000    0.000000
      4          1           0        1.410000   -0.560000   -0.885000
      5          1           0        1.424000   -0.557000    0.880000
      6          1           0        1.308000    1.969000   -0.883000
      7         14           0        3.513000    1.515000    0.035000
      8          1           0        1.282000    1.975000    0.868000
      9          8           0        4.574000    0.904000   -1.069000
     10          8           0        3.968000    0.824000    1.454000
     11          1           0        4.029000    2.906000   -0.040000
     12          1           0        4.500000   -0.027000   -1.286000
     13          6           0        5.301000    0.766000    1.905000
     14          1           0        5.308000    0.322000    2.902000
     15          1           0        5.747000    1.766000    1.967000
     16          1           0        5.921000    0.153000    1.244000
 ---------------------------------------------------------------------
                    Distance matrix (angstroms):
                    1          2          3          4          5
     1  H    0.000000
     2  C    1.093000   0.000000
     3  C    2.181345   1.528098   0.000000
     4  H    1.756395   1.094218   2.183486   0.000000
     5  H    1.764207   1.092799   2.177210   1.765058   0.000000
     6  H    2.523393   2.168611   1.095629   2.531057   3.082580
     7  Si   3.825914   2.855320   1.860706   3.094291   3.061230
     8  H    2.509497   2.165588   1.095203   3.084740   2.536007
     9  O    4.783456   3.751978   3.151287   3.491138   3.981912
    10  O    4.305591   3.325465   2.796515   3.732257   2.951029
    11  H    4.967824   4.131166   2.800482   4.425646   4.429988
    12  H    4.680227   3.641727   3.441588   3.161169   3.799241
    13  C    5.684750   4.682205   4.165497   4.968124   4.222805
    14  H    6.058065   5.127525   4.793101   5.505788   4.466160
    15  H    6.325809   5.352342   4.553304   5.688036   5.026552
    16  H    6.052205   4.988039   4.621051   5.038862   4.567232
                    6          7          8          9         10
     6  H    0.000000
     7  Si   2.431227   0.000000
     8  H    1.751203   2.425459   0.000000
     9  O    3.440287   1.648593   3.966897   0.000000
    10  O    3.721316   1.642579   2.980401   2.595990   0.000000
    11  H    2.998743   1.485517   3.039282   2.316003   2.563295
    12  H    3.786197   2.257648   4.359271   0.958815   2.918017
    13  C    5.016393   2.693482   4.323125   3.064678   1.408423
    14  H    5.747942   3.586776   4.803982   4.079990   2.035757
    15  H    5.279056   2.964183   4.603011   3.366938   2.077348
    16  H    5.394604   3.019137   4.998138   2.779996   2.075705
                   11         12         13         14         15
    11  H    0.000000
    12  H    3.221311   0.000000
    13  C    3.159210   3.384218   0.000000
    14  H    4.119255   4.279487   1.091418   0.000000
    15  H    2.877355   3.918146   1.096704   1.775410   0.000000
    16  H    3.578733   2.907325   1.094116   1.775752   1.776168
                   16
    16  H    0.000000
 Stoichiometry    C3H10O2Si
 Framework group  C1[X(C3H10O2Si)]
 Deg. of freedom    42
 Full point group                 C1      NOp   1
 Largest Abelian subgroup         C1      NOp   1
 Largest concise Abelian subgroup C1      NOp   1
                         Standard orientation:                         
 ---------------------------------------------------------------------
 Center     Atomic      Atomic             Coordinates (Angstroms)
 Number     Number       Type             X           Y           Z
 ---------------------------------------------------------------------
      1          1           0       -3.363732   -0.992908   -0.507443
      2          6           0       -2.338677   -0.649325   -0.668261
      3          6           0       -1.713816   -0.121567    0.622517
      4          1           0       -2.380989    0.123145   -1.442092
      5          1           0       -1.767223   -1.489496   -1.070458
      6          1           0       -2.301915    0.714101    1.017739
      7         14           0        0.047060    0.453637    0.447350
      8          1           0       -1.730219   -0.897541    1.395217
      9          8           0        0.624487    1.648114   -0.531251
     10          8           0        0.908943   -0.874706    0.010624
     11          1           0        0.601202    1.028266    1.700143
     12          1           0        0.417192    1.593726   -1.465808
     13          6           0        2.308511   -0.883392   -0.146818
     14          1           0        2.623684   -1.904734   -0.367545
     15          1           0        2.816700   -0.552946    0.767134
     16          1           0        2.622918   -0.234086   -0.969400
 ---------------------------------------------------------------------
 Rotational constants (GHZ):      4.1481498      1.8792203      1.5619633
 Standard basis: def2TZVP (5D, 7F)
 There are   252 symmetry adapted basis functions of A   symmetry.
 Integral buffers will be    131072 words long.
 Raffenetti 2 integral format.
 Two-electron integral symmetry is turned on.
   252 basis functions,   404 primitive gaussians,   282 cartesian basis functions
    29 alpha electrons       29 beta electrons
       nuclear repulsion energy       329.6511338850 Hartrees.
 NAtoms=   16 NActive=   16 NUniq=   16 SFac= 1.00D+00 NAtFMM=   60 NAOKFM=F Big=F
 One-electron integrals computed using PRISM.
   1 Symmetry operations used in ECPInt.
 ECPInt:  NShTT=    5886 NPrTT=   17754 LenC2=    5776 LenP2D=   13909.
 LDataN:  DoStor=T MaxTD1= 6 Len=  172
 NBasis=   252 RedAO= T  NBF=   252
 NBsUse=   252 1.00D-06 NBFU=   252
 Harris functional with IExCor= 1009 diagonalized for initial guess.
 ExpMin= 7.01D-02 ExpMax= 4.48D+04 ExpMxC= 1.53D+03 IAcc=2 IRadAn=         4 AccDes= 0.00D+00
 HarFok:  IExCor= 1009 AccDes= 0.00D+00 IRadAn=         4 IDoV= 1
 ScaDFX=  1.000000  1.000000  1.000000  1.000000
 FoFCou: FMM=F IPFlag=           0 FMFlag=      100000 FMFlg1=           0
         NFxFlg=           0 DoJE=T BraDBF=F KetDBF=T FulRan=T
         Omega=  0.000000  0.000000  1.000000  0.000000  0.000000 ICntrl=     500 IOpCl=  0
         NMat0=    1 NMatS0=    1 NMatT0=    0 NMatD0=    1 NMtDS0=    0 NMtDT0=    0
         I1Cent=           4 NGrid=           0.
 Petite list used in FoFCou.
 Initial guess orbital symmetries:
       Occupied  (A) (A) (A) (A) (A) (A) (A) (A) (A) (A) (A) (A)
                 (A) (A) (A) (A) (A) (A) (A) (A) (A) (A) (A) (A)
                 (A) (A) (A) (A) (A)
       Virtual   (A) (A) (A) (A) (A) (A) (A) (A) (A) (A) (A) (A)
                 (A) (A) (A) (A) (A) (A) (A) (A) (A) (A) (A) (A)
                 (A) (A) (A) (A) (A) (A) (A) (A) (A) (A) (A) (A)
                 (A) (A) (A) (A) (A) (A) (A) (A) (A) (A) (A) (A)
                 (A) (A) (A) (A) (A) (A) (A) (A) (A) (A) (A) (A)
                 (A) (A) (A) (A) (A) (A) (A) (A) (A) (A) (A) (A)
                 (A) (A) (A) (A) (A) (A) (A) (A) (A) (A) (A) (A)
                 (A) (A) (A) (A) (A) (A) (A) (A) (A) (A) (A) (A)
                 (A) (A) (A) (A) (A) (A) (A) (A) (A) (A) (A) (A)
                 (A) (A) (A) (A) (A) (A) (A) (A) (A) (A) (A) (A)
                 (A) (A) (A) (A) (A) (A) (A) (A) (A) (A) (A) (A)
                 (A) (A) (A) (A) (A) (A) (A) (A) (A) (A) (A) (A)
                 (A) (A) (A) (A) (A) (A) (A) (A) (A) (A) (A) (A)
                 (A) (A) (A) (A) (A) (A) (A) (A) (A) (A) (A) (A)
                 (A) (A) (A) (A) (A) (A) (A) (A) (A) (A) (A) (A)
                 (A) (A) (A) (A) (A) (A) (A) (A) (A) (A) (A) (A)
                 (A) (A) (A) (A) (A) (A) (A) (A) (A) (A) (A) (A)
                 (A) (A) (A) (A) (A) (A) (A) (A) (A) (A) (A) (A)
                 (A) (A) (A) (A) (A) (A) (A)
 The electronic state of the initial guess is 1-A.
 Requested convergence on RMS density matrix=1.00D-08 within 128 cycles.
 Requested convergence on MAX density matrix=1.00D-06.
 Requested convergence on             energy=1.00D-06.
 No special actions if energy rises.
 Integral accuracy reduced to 1.0D-05 until final iterations.
 Initial convergence to 1.0D-05 achieved.  Increase integral accuracy.
 SCF Done:  E(RPBE1PBE) =  -560.053320491     A.U. after   12 cycles
             Convg  =    0.8020D-08             -V/T =  2.0032

 **********************************************************************

            Population analysis using the SCF density.

 **********************************************************************

 Orbital symmetries:
       Occupied  (A) (A) (A) (A) (A) (A) (A) (A) (A) (A) (A) (A)
                 (A) (A) (A) (A) (A) (A) (A) (A) (A) (A) (A) (A)
                 (A) (A) (A) (A) (A)
       Virtual   (A) (A) (A) (A) (A) (A) (A) (A) (A) (A) (A) (A)
                 (A) (A) (A) (A) (A) (A) (A) (A) (A) (A) (A) (A)
                 (A) (A) (A) (A) (A) (A) (A) (A) (A) (A) (A) (A)
                 (A) (A) (A) (A) (A) (A) (A) (A) (A) (A) (A) (A)
                 (A) (A) (A) (A) (A) (A) (A) (A) (A) (A) (A) (A)
                 (A) (A) (A) (A) (A) (A) (A) (A) (A) (A) (A) (A)
                 (A) (A) (A) (A) (A) (A) (A) (A) (A) (A) (A) (A)
                 (A) (A) (A) (A) (A) (A) (A) (A) (A) (A) (A) (A)
                 (A) (A) (A) (A) (A) (A) (A) (A) (A) (A) (A) (A)
                 (A) (A) (A) (A) (A) (A) (A) (A) (A) (A) (A) (A)
                 (A) (A) (A) (A) (A) (A) (A) (A) (A) (A) (A) (A)
                 (A) (A) (A) (A) (A) (A) (A) (A) (A) (A) (A) (A)
                 (A) (A) (A) (A) (A) (A) (A) (A) (A) (A) (A) (A)
                 (A) (A) (A) (A) (A) (A) (A) (A) (A) (A) (A) (A)
                 (A) (A) (A) (A) (A) (A) (A) (A) (A) (A) (A) (A)
                 (A) (A) (A) (A) (A) (A) (A) (A) (A) (A) (A) (A)
                 (A) (A) (A) (A) (A) (A) (A) (A) (A) (A) (A) (A)
                 (A) (A) (A) (A) (A) (A) (A) (A) (A) (A) (A) (A)
                 (A) (A) (A) (A) (A) (A) (A)
 The electronic state is 1-A.
 Alpha  occ. eigenvalues --  -66.25313 -19.20251 -19.19215 -10.25892 -10.22046
 Alpha  occ. eigenvalues --  -10.21856  -5.32982  -3.66550  -3.66380  -3.66225
 Alpha  occ. eigenvalues --   -1.04228  -1.01774  -0.78786  -0.70009  -0.64512
 Alpha  occ. eigenvalues --   -0.56734  -0.50670  -0.46579  -0.46418  -0.46089
 Alpha  occ. eigenvalues --   -0.43561  -0.40856  -0.39394  -0.37050  -0.36793
 Alpha  occ. eigenvalues --   -0.35549  -0.31536  -0.30414  -0.29208
 Alpha virt. eigenvalues --    0.01618   0.05463   0.05956   0.07986   0.08934
 Alpha virt. eigenvalues --    0.09979   0.10218   0.11956   0.12687   0.13502
 Alpha virt. eigenvalues --    0.14046   0.15120   0.15677   0.16103   0.19049
 Alpha virt. eigenvalues --    0.21395   0.21843   0.23739   0.24353   0.24693
 Alpha virt. eigenvalues --    0.26526   0.27815   0.29460   0.30611   0.31051
 Alpha virt. eigenvalues --    0.34482   0.37299   0.39746   0.40556   0.40866
 Alpha virt. eigenvalues --    0.41772   0.42633   0.44017   0.45057   0.45738
 Alpha virt. eigenvalues --    0.47354   0.47478   0.48214   0.49189   0.50706
 Alpha virt. eigenvalues --    0.51204   0.53996   0.55999   0.56621   0.57790
 Alpha virt. eigenvalues --    0.60752   0.62604   0.64148   0.66778   0.69572
 Alpha virt. eigenvalues --    0.72430   0.74102   0.77180   0.78521   0.81071
 Alpha virt. eigenvalues --    0.82392   0.85071   0.86085   0.89409   0.91854
 Alpha virt. eigenvalues --    0.93432   0.95978   0.96517   0.99519   1.01118
 Alpha virt. eigenvalues --    1.04408   1.06938   1.08016   1.08878   1.11028
 Alpha virt. eigenvalues --    1.12141   1.12366   1.14597   1.16969   1.22520
 Alpha virt. eigenvalues --    1.27606   1.29303   1.31067   1.37585   1.38929
 Alpha virt. eigenvalues --    1.41823   1.45431   1.47445   1.50771   1.52216
 Alpha virt. eigenvalues --    1.53496   1.54230   1.55277   1.56713   1.57112
 Alpha virt. eigenvalues --    1.60171   1.61363   1.61770   1.64250   1.65857
 Alpha virt. eigenvalues --    1.67202   1.72360   1.74962   1.75747   1.79546
 Alpha virt. eigenvalues --    1.81892   1.83081   1.88771   1.90434   1.93034
 Alpha virt. eigenvalues --    1.94552   1.95931   1.99078   1.99323   2.04161
 Alpha virt. eigenvalues --    2.05420   2.09251   2.10976   2.12117   2.15578
 Alpha virt. eigenvalues --    2.16611   2.19026   2.27527   2.29630   2.30505
 Alpha virt. eigenvalues --    2.32732   2.33222   2.35081   2.35770   2.36240
 Alpha virt. eigenvalues --    2.38342   2.41836   2.45877   2.46778   2.48472
 Alpha virt. eigenvalues --    2.51664   2.52366   2.54248   2.56673   2.58335
 Alpha virt. eigenvalues --    2.60047   2.60969   2.65319   2.66383   2.71961
 Alpha virt. eigenvalues --    2.73204   2.78324   2.81016   2.84012   2.85083
 Alpha virt. eigenvalues --    2.89610   2.93658   2.97002   2.99360   3.03719
 Alpha virt. eigenvalues --    3.06050   3.08995   3.11251   3.11324   3.15322
 Alpha virt. eigenvalues --    3.21273   3.21781   3.23211   3.27733   3.31334
 Alpha virt. eigenvalues --    3.32018   3.33642   3.36927   3.40280   3.44289
 Alpha virt. eigenvalues --    3.45551   3.46977   3.50157   3.53122   3.54974
 Alpha virt. eigenvalues --    3.58540   3.59291   3.64082   3.66849   3.76962
 Alpha virt. eigenvalues --    3.80273   3.88452   3.91677   3.95386   4.02227
 Alpha virt. eigenvalues --    4.19923   4.23530   4.26482   4.33944   4.37817
 Alpha virt. eigenvalues --    4.41667   4.46267   4.53387   4.56915   4.78160
 Alpha virt. eigenvalues --    5.15442   5.16487   5.18192   5.19813   5.29070
 Alpha virt. eigenvalues --    5.31668   5.39126   5.41845   5.45769   5.50199
 Alpha virt. eigenvalues --    5.80199   5.87893   6.04573   6.24028   6.38389
 Alpha virt. eigenvalues --    6.40498   6.53676   6.57387   6.61788   6.69386
 Alpha virt. eigenvalues --    6.71830   6.78431   6.81903   7.01101   7.08372
 Alpha virt. eigenvalues --    7.13543   7.21310  11.88678  22.37161  22.40621
 Alpha virt. eigenvalues --   22.45386  43.62219  43.94265
          Condensed to atoms (all electrons):
              1          2          3          4          5          6
     1  H    0.553328   0.408424  -0.033857  -0.026567  -0.024454  -0.006773
     2  C    0.408424   4.932664   0.316570   0.404522   0.413614  -0.030918
     3  C   -0.033857   0.316570   5.057227  -0.042757  -0.039643   0.386915
     4  H   -0.026567   0.404522  -0.042757   0.573495  -0.026081  -0.004508
     5  H   -0.024454   0.413614  -0.039643  -0.026081   0.528626   0.007637
     6  H   -0.006773  -0.030918   0.386915  -0.004508   0.007637   0.573949
     7  Si   0.006436  -0.023081   0.390373  -0.003092  -0.007956  -0.028674
     8  H   -0.006984  -0.026750   0.375382   0.007744  -0.004032  -0.024790
     9  O   -0.000113  -0.002558  -0.031059   0.001981  -0.000151   0.000025
    10  O    0.000001  -0.004113  -0.030802  -0.000056   0.007819   0.001362
    11  H   -0.000144   0.001947  -0.039270   0.000207   0.000408   0.001357
    12  H   -0.000057  -0.000013  -0.002962   0.000893   0.000062   0.000030
    13  C    0.000003   0.000003   0.000823   0.000079  -0.000038  -0.000109
    14  H   -0.000003   0.000238  -0.000255  -0.000004  -0.000171  -0.000001
    15  H    0.000000  -0.000031  -0.000024  -0.000005   0.000086   0.000012
    16  H    0.000001  -0.000242   0.000786   0.000011   0.000021   0.000012
              7          8          9         10         11         12
     1  H    0.006436  -0.006984  -0.000113   0.000001  -0.000144  -0.000057
     2  C   -0.023081  -0.026750  -0.002558  -0.004113   0.001947  -0.000013
     3  C    0.390373   0.375382  -0.031059  -0.030802  -0.039270  -0.002962
     4  H   -0.003092   0.007744   0.001981  -0.000056   0.000207   0.000893
     5  H   -0.007956  -0.004032  -0.000151   0.007819   0.000408   0.000062
     6  H   -0.028674  -0.024790   0.000025   0.001362   0.001357   0.000030
     7  Si  11.910707  -0.008783   0.480588   0.458865   0.389217  -0.028714
     8  H   -0.008783   0.556641   0.000933   0.001023   0.000197  -0.000040
     9  O    0.480588   0.000933   7.847330  -0.045122  -0.025352   0.293913
    10  O    0.458865   0.001023  -0.045122   7.847731  -0.026699  -0.000808
    11  H    0.389217   0.000197  -0.025352  -0.026699   0.756261   0.006663
    12  H   -0.028714  -0.000040   0.293913  -0.000808   0.006663   0.418718
    13  C   -0.052583   0.000077  -0.013616   0.266105   0.003141   0.001005
    14  H    0.008040  -0.000008   0.000402  -0.039679  -0.000278   0.000017
    15  H   -0.016580  -0.000029  -0.000404  -0.043501   0.010902   0.000120
    16  H   -0.004754  -0.000008   0.010595  -0.045807  -0.001826   0.000393
             13         14         15         16
     1  H    0.000003  -0.000003   0.000000   0.000001
     2  C    0.000003   0.000238  -0.000031  -0.000242
     3  C    0.000823  -0.000255  -0.000024   0.000786
     4  H    0.000079  -0.000004  -0.000005   0.000011
     5  H   -0.000038  -0.000171   0.000086   0.000021
     6  H   -0.000109  -0.000001   0.000012   0.000012
     7  Si  -0.052583   0.008040  -0.016580  -0.004754
     8  H    0.000077  -0.000008  -0.000029  -0.000008
     9  O   -0.013616   0.000402  -0.000404   0.010595
    10  O    0.266105  -0.039679  -0.043501  -0.045807
    11  H    0.003141  -0.000278   0.010902  -0.001826
    12  H    0.001005   0.000017   0.000120   0.000393
    13  C    4.765265   0.400652   0.418034   0.409014
    14  H    0.400652   0.571757  -0.031751  -0.035100
    15  H    0.418034  -0.031751   0.592995  -0.045579
    16  H    0.409014  -0.035100  -0.045579   0.602184
 Mulliken atomic charges:
              1
     1  H    0.130758
     2  C   -0.390278
     3  C   -0.307447
     4  H    0.114139
     5  H    0.144254
     6  H    0.124473
     7  Si   0.529991
     8  H    0.129428
     9  O   -0.517392
    10  O   -0.346321
    11  H   -0.076731
    12  H    0.310780
    13  C   -0.197855
    14  H    0.126144
    15  H    0.115756
    16  H    0.110300
 Sum of Mulliken atomic charges =   0.00000
 Mulliken charges with hydrogens summed into heavy atoms:
              1
     2  C   -0.001126
     3  C   -0.053546
     7  Si   0.453261
     9  O   -0.206612
    10  O   -0.346321
    13  C    0.154346
 Sum of Mulliken charges with hydrogens summed into heavy atoms =   0.00000
 Electronic spatial extent (au):  <R**2>=            871.6228
 Charge=              0.0000 electrons
 Dipole moment (field-independent basis, Debye):
    X=             -0.9100    Y=             -0.4549    Z=             -1.1704  Tot=              1.5508
 Quadrupole moment (field-independent basis, Debye-Ang):
   XX=            -41.8041   YY=            -48.7677   ZZ=            -42.7464
   XY=             -2.3530   XZ=             -1.1988   YZ=             -2.2691
 Traceless Quadrupole moment (field-independent basis, Debye-Ang):
   XX=              2.6353   YY=             -4.3283   ZZ=              1.6930
   XY=             -2.3530   XZ=             -1.1988   YZ=             -2.2691
 Octapole moment (field-independent basis, Debye-Ang**2):
  XXX=             11.6594  YYY=             -5.3206  ZZZ=            -11.8241  XYY=             -1.6077
  XXY=             -4.1343  XXZ=             -0.0952  XZZ=              2.5988  YZZ=              4.7225
  YYZ=             -4.1016  XYZ=              0.2507
 Hexadecapole moment (field-independent basis, Debye-Ang**3):
 XXXX=           -722.5095 YYYY=           -285.8273 ZZZZ=           -160.1316 XXXY=             -9.4157
 XXXZ=             -6.5333 YYYX=            -11.7812 YYYZ=             -8.1350 ZZZX=             -8.3235
 ZZZY=            -21.9688 XXYY=           -165.9973 XXZZ=           -151.3489 YYZZ=            -64.7757
 XXYZ=             -1.7531 YYXZ=             -4.4576 ZZXY=              0.8818
 N-N= 3.296511338850D+02 E-N=-1.983334685552D+03  KE= 5.582603808920D+02
 1\1\GINC-TARSUS4\SP\RPBE1PBE\def2TZVP\C3H10O2Si1\RENATO\08-Aug-2018\0\
 \#SP PBE1PBE/Def2TZVP geom=connectivity\\Structure: 112\\0,1\H,0,0.,0.
 ,0.\C,0,1.093,0.,0.\C,0,1.655,1.421,0.\H,0,1.41,-0.56,-0.885\H,0,1.424
 ,-0.557,0.88\H,0,1.308,1.969,-0.883\Si,0,3.513,1.515,0.035\H,0,1.282,1
 .975,0.868\O,0,4.574,0.904,-1.069\O,0,3.968,0.824,1.454\H,0,4.029,2.90
 6,-0.04\H,0,4.5,-0.027,-1.286\C,0,5.301,0.766,1.905\H,0,5.308,0.322,2.
 902\H,0,5.747,1.766,1.967\H,0,5.921,0.153,1.244\\Version=EM64L-G09RevC
 .01\State=1-A\HF=-560.0533205\RMSD=8.020e-09\Dipole=-0.3242808,-0.5139
 351,-0.0544861\Quadrupole=0.8031142,0.0048698,-0.807984,-1.9957932,2.3
 601692,2.0946432\PG=C01 [X(C3H10O2Si1)]\\@


 We find comfort among those who agree with us -- growth among those who don't.
 -- Frank A. Clark
 Job cpu time:  0 days  0 hours 12 minutes 40.6 seconds.
 File lengths (MBytes):  RWF=     40 Int=      0 D2E=      0 Chk=      3 Scr=      1
 Normal termination of Gaussian 09 at Wed Aug  8 11:27:02 2018.
