 Entering Gaussian System, Link 0=g09
 Initial command:
 /usr/local/gaussian09/g09/l1.exe /scratch/renato/Gau-4142.inp -scrdir=/scratch/renato/
 Entering Link 1 = /usr/local/gaussian09/g09/l1.exe PID=      4144.
  
 Copyright (c) 1988,1990,1992,1993,1995,1998,2003,2009,2011,
            Gaussian, Inc.  All Rights Reserved.
  
 This is part of the Gaussian(R) 09 program.  It is based on
 the Gaussian(R) 03 system (copyright 2003, Gaussian, Inc.),
 the Gaussian(R) 98 system (copyright 1998, Gaussian, Inc.),
 the Gaussian(R) 94 system (copyright 1995, Gaussian, Inc.),
 the Gaussian 92(TM) system (copyright 1992, Gaussian, Inc.),
 the Gaussian 90(TM) system (copyright 1990, Gaussian, Inc.),
 the Gaussian 88(TM) system (copyright 1988, Gaussian, Inc.),
 the Gaussian 86(TM) system (copyright 1986, Carnegie Mellon
 University), and the Gaussian 82(TM) system (copyright 1983,
 Carnegie Mellon University). Gaussian is a federally registered
 trademark of Gaussian, Inc.
  
 This software contains proprietary and confidential information,
 including trade secrets, belonging to Gaussian, Inc.
  
 This software is provided under written license and may be
 used, copied, transmitted, or stored only in accord with that
 written license.
  
 The following legend is applicable only to US Government
 contracts under FAR:
  
                    RESTRICTED RIGHTS LEGEND
  
 Use, reproduction and disclosure by the US Government is
 subject to restrictions as set forth in subparagraphs (a)
 and (c) of the Commercial Computer Software - Restricted
 Rights clause in FAR 52.227-19.
  
 Gaussian, Inc.
 340 Quinnipiac St., Bldg. 40, Wallingford CT 06492
  
  
 ---------------------------------------------------------------
 Warning -- This program may not be used in any manner that
 competes with the business of Gaussian, Inc. or will provide
 assistance to any competitor of Gaussian, Inc.  The licensee
 of this program is prohibited from giving any competitor of
 Gaussian, Inc. access to this program.  By using this program,
 the user acknowledges that Gaussian, Inc. is engaged in the
 business of creating and licensing software in the field of
 computational chemistry and represents and warrants to the
 licensee that it is not a competitor of Gaussian, Inc. and that
 it will not use this program in any manner prohibited above.
 ---------------------------------------------------------------
  

 Cite this work as:
 Gaussian 09, Revision C.01,
 M. J. Frisch, G. W. Trucks, H. B. Schlegel, G. E. Scuseria, 
 M. A. Robb, J. R. Cheeseman, G. Scalmani, V. Barone, B. Mennucci, 
 G. A. Petersson, H. Nakatsuji, M. Caricato, X. Li, H. P. Hratchian, 
 A. F. Izmaylov, J. Bloino, G. Zheng, J. L. Sonnenberg, M. Hada, 
 M. Ehara, K. Toyota, R. Fukuda, J. Hasegawa, M. Ishida, T. Nakajima, 
 Y. Honda, O. Kitao, H. Nakai, T. Vreven, J. A. Montgomery, Jr., 
 J. E. Peralta, F. Ogliaro, M. Bearpark, J. J. Heyd, E. Brothers, 
 K. N. Kudin, V. N. Staroverov, T. Keith, R. Kobayashi, J. Normand, 
 K. Raghavachari, A. Rendell, J. C. Burant, S. S. Iyengar, J. Tomasi, 
 M. Cossi, N. Rega, J. M. Millam, M. Klene, J. E. Knox, J. B. Cross, 
 V. Bakken, C. Adamo, J. Jaramillo, R. Gomperts, R. E. Stratmann, 
 O. Yazyev, A. J. Austin, R. Cammi, C. Pomelli, J. W. Ochterski, 
 R. L. Martin, K. Morokuma, V. G. Zakrzewski, G. A. Voth, 
 P. Salvador, J. J. Dannenberg, S. Dapprich, A. D. Daniels, 
 O. Farkas, J. B. Foresman, J. V. Ortiz, J. Cioslowski, 
 and D. J. Fox, Gaussian, Inc., Wallingford CT, 2010.
 
 ******************************************
 Gaussian 09:  EM64L-G09RevC.01 23-Sep-2011
                 8-Aug-2018 
 ******************************************
 %nproc=2
 Will use up to    2 processors via shared memory.
 %mem=256MB
 %RWF=a13.rwf
 %chk=a13115
 %NoSave
 --------------------------------------
 #SP PBE1PBE/Def2TZVP geom=connectivity
 --------------------------------------
 1/38=1,57=2/1;
 2/12=2,17=6,18=5,40=1/2;
 3/5=44,7=101,11=2,16=1,25=1,30=1,74=-13/1,2,3;
 4//1;
 5/5=2,38=5/2;
 6/7=2,8=2,9=2,10=2,28=1/1;
 99/5=1,9=1/99;
 --------------
 Structure: 115
 --------------
 Charge =  0 Multiplicity = 1
 Symbolic Z-Matrix:
 H                     0.        0.        0. 
 C                     1.093     0.        0. 
 C                     1.655     1.421     0. 
 H                     1.41     -0.56     -0.885 
 H                     1.424    -0.557     0.88 
 H                     1.308     1.969    -0.883 
 Si                    3.513     1.515     0.035 
 H                     1.282     1.975     0.868 
 O                     4.596     0.914    -1.053 
 O                     3.968     0.824     1.454 
 H                     4.029     2.906    -0.04 
 H                     4.533    -0.017    -1.272 
 C                     5.301     0.766     1.905 
 H                     5.308     0.322     2.902 
 H                     5.747     1.766     1.967 
 H                     5.921     0.153     1.244 
 
                          Input orientation:                          
 ---------------------------------------------------------------------
 Center     Atomic      Atomic             Coordinates (Angstroms)
 Number     Number       Type             X           Y           Z
 ---------------------------------------------------------------------
      1          1           0        0.000000    0.000000    0.000000
      2          6           0        1.093000    0.000000    0.000000
      3          6           0        1.655000    1.421000    0.000000
      4          1           0        1.410000   -0.560000   -0.885000
      5          1           0        1.424000   -0.557000    0.880000
      6          1           0        1.308000    1.969000   -0.883000
      7         14           0        3.513000    1.515000    0.035000
      8          1           0        1.282000    1.975000    0.868000
      9          8           0        4.596000    0.914000   -1.053000
     10          8           0        3.968000    0.824000    1.454000
     11          1           0        4.029000    2.906000   -0.040000
     12          1           0        4.533000   -0.017000   -1.272000
     13          6           0        5.301000    0.766000    1.905000
     14          1           0        5.308000    0.322000    2.902000
     15          1           0        5.747000    1.766000    1.967000
     16          1           0        5.921000    0.153000    1.244000
 ---------------------------------------------------------------------
                    Distance matrix (angstroms):
                    1          2          3          4          5
     1  H    0.000000
     2  C    1.093000   0.000000
     3  C    2.181345   1.528098   0.000000
     4  H    1.756395   1.094218   2.183486   0.000000
     5  H    1.764207   1.092799   2.177210   1.765058   0.000000
     6  H    2.523393   2.168611   1.095629   2.531057   3.082580
     7  Si   3.825914   2.855320   1.860706   3.094291   3.061230
     8  H    2.509497   2.165588   1.095203   3.084740   2.536007
     9  O    4.802856   3.770307   3.164702   3.514470   3.995236
    10  O    4.305591   3.325465   2.796515   3.732257   2.951029
    11  H    4.967824   4.131166   2.800482   4.425646   4.429988
    12  H    4.708117   3.667680   3.459583   3.193391   3.819501
    13  C    5.684750   4.682205   4.165497   4.968124   4.222805
    14  H    6.058065   5.127525   4.793101   5.505788   4.466160
    15  H    6.325809   5.352342   4.553304   5.688036   5.026552
    16  H    6.052205   4.988039   4.621051   5.038862   4.567232
                    6          7          8          9         10
     6  H    0.000000
     7  Si   2.431227   0.000000
     8  H    1.751203   2.425459   0.000000
     9  O    3.457292   1.648585   3.974740   0.000000
    10  O    3.721316   1.642579   2.980401   2.586026   0.000000
    11  H    2.998743   1.485517   3.039282   2.305585   2.563295
    12  H    3.807380   2.257360   4.372261   0.958484   2.908192
    13  C    5.016393   2.693482   4.323125   3.044453   1.408423
    14  H    5.747942   3.586776   4.803982   4.061949   2.035757
    15  H    5.279056   2.964183   4.603011   3.342320   2.077348
    16  H    5.394604   3.019137   4.998138   2.758796   2.075705
                   11         12         13         14         15
    11  H    0.000000
    12  H    3.211817   0.000000
    13  C    3.159210   3.360988   0.000000
    14  H    4.119255   4.258852   1.091418   0.000000
    15  H    2.877355   3.891530   1.096704   1.775410   0.000000
    16  H    3.578733   2.878489   1.094116   1.775752   1.776168
                   16
    16  H    0.000000
 Stoichiometry    C3H10O2Si
 Framework group  C1[X(C3H10O2Si)]
 Deg. of freedom    42
 Full point group                 C1      NOp   1
 Largest Abelian subgroup         C1      NOp   1
 Largest concise Abelian subgroup C1      NOp   1
                         Standard orientation:                         
 ---------------------------------------------------------------------
 Center     Atomic      Atomic             Coordinates (Angstroms)
 Number     Number       Type             X           Y           Z
 ---------------------------------------------------------------------
      1          1           0       -3.371630   -0.981420   -0.506081
      2          6           0       -2.345019   -0.643047   -0.668014
      3          6           0       -1.719199   -0.109965    0.620108
      4          1           0       -2.383424    0.124833   -1.446601
      5          1           0       -1.776654   -1.488011   -1.064509
      6          1           0       -2.304221    0.730521    1.009640
      7         14           0        0.044194    0.456909    0.443116
      8          1           0       -1.739522   -0.881115    1.397529
      9          8           0        0.654184    1.637653   -0.532377
     10          8           0        0.901008   -0.877619    0.015362
     11          1           0        0.599524    1.036920    1.692899
     12          1           0        0.457203    1.583631   -1.468844
     13          6           0        2.300675   -0.893025   -0.140678
     14          1           0        2.611846   -1.916988   -0.354842
     15          1           0        2.809365   -0.559078    0.771722
     16          1           0        2.618524   -0.250071   -0.966917
 ---------------------------------------------------------------------
 Rotational constants (GHZ):      4.1643106      1.8765482      1.5606609
 Standard basis: def2TZVP (5D, 7F)
 There are   252 symmetry adapted basis functions of A   symmetry.
 Integral buffers will be    131072 words long.
 Raffenetti 2 integral format.
 Two-electron integral symmetry is turned on.
   252 basis functions,   404 primitive gaussians,   282 cartesian basis functions
    29 alpha electrons       29 beta electrons
       nuclear repulsion energy       329.7019995124 Hartrees.
 NAtoms=   16 NActive=   16 NUniq=   16 SFac= 1.00D+00 NAtFMM=   60 NAOKFM=F Big=F
 One-electron integrals computed using PRISM.
   1 Symmetry operations used in ECPInt.
 ECPInt:  NShTT=    5886 NPrTT=   17754 LenC2=    5776 LenP2D=   13906.
 LDataN:  DoStor=T MaxTD1= 6 Len=  172
 NBasis=   252 RedAO= T  NBF=   252
 NBsUse=   252 1.00D-06 NBFU=   252
 Harris functional with IExCor= 1009 diagonalized for initial guess.
 ExpMin= 7.01D-02 ExpMax= 4.48D+04 ExpMxC= 1.53D+03 IAcc=2 IRadAn=         4 AccDes= 0.00D+00
 HarFok:  IExCor= 1009 AccDes= 0.00D+00 IRadAn=         4 IDoV= 1
 ScaDFX=  1.000000  1.000000  1.000000  1.000000
 FoFCou: FMM=F IPFlag=           0 FMFlag=      100000 FMFlg1=           0
         NFxFlg=           0 DoJE=T BraDBF=F KetDBF=T FulRan=T
         Omega=  0.000000  0.000000  1.000000  0.000000  0.000000 ICntrl=     500 IOpCl=  0
         NMat0=    1 NMatS0=    1 NMatT0=    0 NMatD0=    1 NMtDS0=    0 NMtDT0=    0
         I1Cent=           4 NGrid=           0.
 Petite list used in FoFCou.
 Initial guess orbital symmetries:
       Occupied  (A) (A) (A) (A) (A) (A) (A) (A) (A) (A) (A) (A)
                 (A) (A) (A) (A) (A) (A) (A) (A) (A) (A) (A) (A)
                 (A) (A) (A) (A) (A)
       Virtual   (A) (A) (A) (A) (A) (A) (A) (A) (A) (A) (A) (A)
                 (A) (A) (A) (A) (A) (A) (A) (A) (A) (A) (A) (A)
                 (A) (A) (A) (A) (A) (A) (A) (A) (A) (A) (A) (A)
                 (A) (A) (A) (A) (A) (A) (A) (A) (A) (A) (A) (A)
                 (A) (A) (A) (A) (A) (A) (A) (A) (A) (A) (A) (A)
                 (A) (A) (A) (A) (A) (A) (A) (A) (A) (A) (A) (A)
                 (A) (A) (A) (A) (A) (A) (A) (A) (A) (A) (A) (A)
                 (A) (A) (A) (A) (A) (A) (A) (A) (A) (A) (A) (A)
                 (A) (A) (A) (A) (A) (A) (A) (A) (A) (A) (A) (A)
                 (A) (A) (A) (A) (A) (A) (A) (A) (A) (A) (A) (A)
                 (A) (A) (A) (A) (A) (A) (A) (A) (A) (A) (A) (A)
                 (A) (A) (A) (A) (A) (A) (A) (A) (A) (A) (A) (A)
                 (A) (A) (A) (A) (A) (A) (A) (A) (A) (A) (A) (A)
                 (A) (A) (A) (A) (A) (A) (A) (A) (A) (A) (A) (A)
                 (A) (A) (A) (A) (A) (A) (A) (A) (A) (A) (A) (A)
                 (A) (A) (A) (A) (A) (A) (A) (A) (A) (A) (A) (A)
                 (A) (A) (A) (A) (A) (A) (A) (A) (A) (A) (A) (A)
                 (A) (A) (A) (A) (A) (A) (A) (A) (A) (A) (A) (A)
                 (A) (A) (A) (A) (A) (A) (A)
 The electronic state of the initial guess is 1-A.
 Requested convergence on RMS density matrix=1.00D-08 within 128 cycles.
 Requested convergence on MAX density matrix=1.00D-06.
 Requested convergence on             energy=1.00D-06.
 No special actions if energy rises.
 Integral accuracy reduced to 1.0D-05 until final iterations.
 Initial convergence to 1.0D-05 achieved.  Increase integral accuracy.
 SCF Done:  E(RPBE1PBE) =  -560.052205133     A.U. after   12 cycles
             Convg  =    0.7834D-08             -V/T =  2.0032

 **********************************************************************

            Population analysis using the SCF density.

 **********************************************************************

 Orbital symmetries:
       Occupied  (A) (A) (A) (A) (A) (A) (A) (A) (A) (A) (A) (A)
                 (A) (A) (A) (A) (A) (A) (A) (A) (A) (A) (A) (A)
                 (A) (A) (A) (A) (A)
       Virtual   (A) (A) (A) (A) (A) (A) (A) (A) (A) (A) (A) (A)
                 (A) (A) (A) (A) (A) (A) (A) (A) (A) (A) (A) (A)
                 (A) (A) (A) (A) (A) (A) (A) (A) (A) (A) (A) (A)
                 (A) (A) (A) (A) (A) (A) (A) (A) (A) (A) (A) (A)
                 (A) (A) (A) (A) (A) (A) (A) (A) (A) (A) (A) (A)
                 (A) (A) (A) (A) (A) (A) (A) (A) (A) (A) (A) (A)
                 (A) (A) (A) (A) (A) (A) (A) (A) (A) (A) (A) (A)
                 (A) (A) (A) (A) (A) (A) (A) (A) (A) (A) (A) (A)
                 (A) (A) (A) (A) (A) (A) (A) (A) (A) (A) (A) (A)
                 (A) (A) (A) (A) (A) (A) (A) (A) (A) (A) (A) (A)
                 (A) (A) (A) (A) (A) (A) (A) (A) (A) (A) (A) (A)
                 (A) (A) (A) (A) (A) (A) (A) (A) (A) (A) (A) (A)
                 (A) (A) (A) (A) (A) (A) (A) (A) (A) (A) (A) (A)
                 (A) (A) (A) (A) (A) (A) (A) (A) (A) (A) (A) (A)
                 (A) (A) (A) (A) (A) (A) (A) (A) (A) (A) (A) (A)
                 (A) (A) (A) (A) (A) (A) (A) (A) (A) (A) (A) (A)
                 (A) (A) (A) (A) (A) (A) (A) (A) (A) (A) (A) (A)
                 (A) (A) (A) (A) (A) (A) (A) (A) (A) (A) (A) (A)
                 (A) (A) (A) (A) (A) (A) (A)
 The electronic state is 1-A.
 Alpha  occ. eigenvalues --  -66.25316 -19.20231 -19.19160 -10.25853 -10.22067
 Alpha  occ. eigenvalues --  -10.21917  -5.32986  -3.66557  -3.66382  -3.66225
 Alpha  occ. eigenvalues --   -1.04225  -1.01727  -0.78823  -0.69975  -0.64542
 Alpha  occ. eigenvalues --   -0.56737  -0.50637  -0.46602  -0.46403  -0.46067
 Alpha  occ. eigenvalues --   -0.43558  -0.40857  -0.39408  -0.37040  -0.36809
 Alpha  occ. eigenvalues --   -0.35512  -0.31529  -0.30380  -0.29161
 Alpha virt. eigenvalues --    0.01542   0.05430   0.05939   0.07991   0.08936
 Alpha virt. eigenvalues --    0.09922   0.10206   0.11964   0.12705   0.13453
 Alpha virt. eigenvalues --    0.14005   0.15167   0.15706   0.16104   0.19034
 Alpha virt. eigenvalues --    0.21381   0.21872   0.23725   0.24392   0.24679
 Alpha virt. eigenvalues --    0.26504   0.27805   0.29437   0.30647   0.31088
 Alpha virt. eigenvalues --    0.34566   0.37355   0.39707   0.40586   0.40931
 Alpha virt. eigenvalues --    0.41740   0.42677   0.43949   0.45039   0.45777
 Alpha virt. eigenvalues --    0.47417   0.47479   0.48284   0.49105   0.50715
 Alpha virt. eigenvalues --    0.51193   0.54054   0.55977   0.56753   0.57677
 Alpha virt. eigenvalues --    0.60701   0.62634   0.64096   0.66865   0.69606
 Alpha virt. eigenvalues --    0.72305   0.74003   0.77260   0.78677   0.81072
 Alpha virt. eigenvalues --    0.82400   0.85118   0.86091   0.89487   0.91821
 Alpha virt. eigenvalues --    0.93467   0.95997   0.96547   0.99557   1.01058
 Alpha virt. eigenvalues --    1.04438   1.06935   1.07941   1.08859   1.11022
 Alpha virt. eigenvalues --    1.12169   1.12383   1.14505   1.16837   1.22620
 Alpha virt. eigenvalues --    1.27727   1.29343   1.31094   1.37662   1.38586
 Alpha virt. eigenvalues --    1.41825   1.45373   1.47444   1.50799   1.52213
 Alpha virt. eigenvalues --    1.53489   1.54253   1.55307   1.56787   1.57099
 Alpha virt. eigenvalues --    1.60099   1.61288   1.61726   1.64314   1.65823
 Alpha virt. eigenvalues --    1.67275   1.72225   1.74969   1.75837   1.79448
 Alpha virt. eigenvalues --    1.81948   1.83020   1.88826   1.90630   1.93170
 Alpha virt. eigenvalues --    1.94532   1.95957   1.98962   1.99340   2.04096
 Alpha virt. eigenvalues --    2.05513   2.09251   2.11097   2.12144   2.15624
 Alpha virt. eigenvalues --    2.16674   2.19174   2.27581   2.29609   2.30671
 Alpha virt. eigenvalues --    2.32744   2.33244   2.35092   2.35776   2.36349
 Alpha virt. eigenvalues --    2.38447   2.41960   2.45834   2.46915   2.48497
 Alpha virt. eigenvalues --    2.51797   2.52409   2.54230   2.56739   2.58304
 Alpha virt. eigenvalues --    2.60098   2.60966   2.65348   2.66409   2.71993
 Alpha virt. eigenvalues --    2.73300   2.78501   2.81016   2.83930   2.85271
 Alpha virt. eigenvalues --    2.89709   2.93773   2.97236   2.99319   3.03823
 Alpha virt. eigenvalues --    3.05884   3.08997   3.11316   3.11457   3.15346
 Alpha virt. eigenvalues --    3.21349   3.21757   3.23248   3.27773   3.31439
 Alpha virt. eigenvalues --    3.31984   3.33687   3.37013   3.40301   3.44310
 Alpha virt. eigenvalues --    3.45571   3.47058   3.50548   3.53108   3.55044
 Alpha virt. eigenvalues --    3.58356   3.59340   3.64139   3.67125   3.76987
 Alpha virt. eigenvalues --    3.80219   3.88590   3.91605   3.95343   4.02143
 Alpha virt. eigenvalues --    4.19955   4.23492   4.26606   4.33928   4.37878
 Alpha virt. eigenvalues --    4.41661   4.46221   4.53395   4.56900   4.78127
 Alpha virt. eigenvalues --    5.15430   5.16502   5.18214   5.19957   5.29112
 Alpha virt. eigenvalues --    5.31870   5.39182   5.41874   5.45835   5.50274
 Alpha virt. eigenvalues --    5.80221   5.88014   6.04644   6.24255   6.38129
 Alpha virt. eigenvalues --    6.40515   6.53784   6.57299   6.61930   6.69534
 Alpha virt. eigenvalues --    6.72192   6.78351   6.81920   7.01443   7.08628
 Alpha virt. eigenvalues --    7.13358   7.21335  11.88331  22.37158  22.40608
 Alpha virt. eigenvalues --   22.45428  43.62415  43.94286
          Condensed to atoms (all electrons):
              1          2          3          4          5          6
     1  H    0.553462   0.408324  -0.033815  -0.026588  -0.024438  -0.006770
     2  C    0.408324   4.932457   0.316396   0.404754   0.413651  -0.031031
     3  C   -0.033815   0.316396   5.058886  -0.042614  -0.039653   0.386886
     4  H   -0.026588   0.404754  -0.042614   0.572927  -0.026011  -0.004487
     5  H   -0.024438   0.413651  -0.039653  -0.026011   0.528261   0.007629
     6  H   -0.006770  -0.031031   0.386886  -0.004487   0.007629   0.573665
     7  Si   0.006345  -0.023241   0.388411  -0.003102  -0.007898  -0.028656
     8  H   -0.006974  -0.026611   0.375719   0.007683  -0.004028  -0.024669
     9  O   -0.000114  -0.002507  -0.030457   0.001841  -0.000140   0.000064
    10  O    0.000001  -0.004048  -0.030682  -0.000079   0.007834   0.001367
    11  H   -0.000145   0.001966  -0.039651   0.000205   0.000408   0.001350
    12  H   -0.000056  -0.000011  -0.003045   0.000837   0.000063   0.000028
    13  C    0.000002   0.000010   0.000748   0.000076  -0.000036  -0.000108
    14  H   -0.000003   0.000239  -0.000241  -0.000004  -0.000172  -0.000001
    15  H    0.000000  -0.000030  -0.000023  -0.000005   0.000086   0.000012
    16  H    0.000001  -0.000251   0.000779   0.000012   0.000022   0.000012
              7          8          9         10         11         12
     1  H    0.006345  -0.006974  -0.000114   0.000001  -0.000145  -0.000056
     2  C   -0.023241  -0.026611  -0.002507  -0.004048   0.001966  -0.000011
     3  C    0.388411   0.375719  -0.030457  -0.030682  -0.039651  -0.003045
     4  H   -0.003102   0.007683   0.001841  -0.000079   0.000205   0.000837
     5  H   -0.007898  -0.004028  -0.000140   0.007834   0.000408   0.000063
     6  H   -0.028656  -0.024669   0.000064   0.001367   0.001350   0.000028
     7  Si  11.912334  -0.008707   0.480870   0.459389   0.389155  -0.028849
     8  H   -0.008707   0.555433   0.000900   0.000977   0.000143  -0.000041
     9  O    0.480870   0.000900   7.848014  -0.046026  -0.026134   0.293568
    10  O    0.459389   0.000977  -0.046026   7.848254  -0.026684  -0.000779
    11  H    0.389155   0.000143  -0.026134  -0.026684   0.758061   0.006883
    12  H   -0.028849  -0.000041   0.293568  -0.000779   0.006883   0.419800
    13  C   -0.052665   0.000076  -0.014140   0.266343   0.003166   0.000994
    14  H    0.008071  -0.000009   0.000442  -0.039560  -0.000281   0.000015
    15  H   -0.016558  -0.000030  -0.000388  -0.043539   0.010955   0.000141
    16  H   -0.004778  -0.000008   0.010832  -0.045990  -0.001807   0.000406
             13         14         15         16
     1  H    0.000002  -0.000003   0.000000   0.000001
     2  C    0.000010   0.000239  -0.000030  -0.000251
     3  C    0.000748  -0.000241  -0.000023   0.000779
     4  H    0.000076  -0.000004  -0.000005   0.000012
     5  H   -0.000036  -0.000172   0.000086   0.000022
     6  H   -0.000108  -0.000001   0.000012   0.000012
     7  Si  -0.052665   0.008071  -0.016558  -0.004778
     8  H    0.000076  -0.000009  -0.000030  -0.000008
     9  O   -0.014140   0.000442  -0.000388   0.010832
    10  O    0.266343  -0.039560  -0.043539  -0.045990
    11  H    0.003166  -0.000281   0.010955  -0.001807
    12  H    0.000994   0.000015   0.000141   0.000406
    13  C    4.765156   0.400451   0.418022   0.408798
    14  H    0.400451   0.572140  -0.031816  -0.035193
    15  H    0.418022  -0.031816   0.592956  -0.045452
    16  H    0.408798  -0.035193  -0.045452   0.603131
 Mulliken atomic charges:
              1
     1  H    0.130768
     2  C   -0.390068
     3  C   -0.307644
     4  H    0.114556
     5  H    0.144423
     6  H    0.124708
     7  Si   0.529881
     8  H    0.130144
     9  O   -0.516624
    10  O   -0.346780
    11  H   -0.077591
    12  H    0.310046
    13  C   -0.196893
    14  H    0.125922
    15  H    0.115668
    16  H    0.109484
 Sum of Mulliken atomic charges =   0.00000
 Mulliken charges with hydrogens summed into heavy atoms:
              1
     2  C   -0.000321
     3  C   -0.052792
     7  Si   0.452290
     9  O   -0.206578
    10  O   -0.346780
    13  C    0.154181
 Sum of Mulliken charges with hydrogens summed into heavy atoms =   0.00000
 Electronic spatial extent (au):  <R**2>=            871.8377
 Charge=              0.0000 electrons
 Dipole moment (field-independent basis, Debye):
    X=             -0.9482    Y=             -0.4442    Z=             -1.1881  Tot=              1.5836
 Quadrupole moment (field-independent basis, Debye-Ang):
   XX=            -41.8342   YY=            -48.7421   ZZ=            -42.7448
   XY=             -2.3883   XZ=             -1.2608   YZ=             -2.2801
 Traceless Quadrupole moment (field-independent basis, Debye-Ang):
   XX=              2.6061   YY=             -4.3017   ZZ=              1.6956
   XY=             -2.3883   XZ=             -1.2608   YZ=             -2.2801
 Octapole moment (field-independent basis, Debye-Ang**2):
  XXX=             11.4517  YYY=             -5.2737  ZZZ=            -11.8660  XYY=             -1.6294
  XXY=             -4.2276  XXZ=             -0.0643  XZZ=              2.7354  YZZ=              4.6462
  YYZ=             -4.0824  XYZ=              0.1490
 Hexadecapole moment (field-independent basis, Debye-Ang**3):
 XXXX=           -724.1277 YYYY=           -285.0849 ZZZZ=           -159.4616 XXXY=             -9.2399
 XXXZ=             -6.5693 YYYX=            -11.7416 YYYZ=             -8.0513 ZZZX=             -8.6897
 ZZZY=            -22.0388 XXYY=           -166.2292 XXZZ=           -151.2938 YYZZ=            -64.8171
 XXYZ=             -1.9098 YYXZ=             -4.6008 ZZXY=              1.2423
 N-N= 3.297019995124D+02 E-N=-1.983440846952D+03  KE= 5.582635152341D+02
 1\1\GINC-TARSUS4\SP\RPBE1PBE\def2TZVP\C3H10O2Si1\RENATO\08-Aug-2018\0\
 \#SP PBE1PBE/Def2TZVP geom=connectivity\\Structure: 115\\0,1\H,0,0.,0.
 ,0.\C,0,1.093,0.,0.\C,0,1.655,1.421,0.\H,0,1.41,-0.56,-0.885\H,0,1.424
 ,-0.557,0.88\H,0,1.308,1.969,-0.883\Si,0,3.513,1.515,0.035\H,0,1.282,1
 .975,0.868\O,0,4.596,0.914,-1.053\O,0,3.968,0.824,1.454\H,0,4.029,2.90
 6,-0.04\H,0,4.533,-0.017,-1.272\C,0,5.301,0.766,1.905\H,0,5.308,0.322,
 2.902\H,0,5.747,1.766,1.967\H,0,5.921,0.153,1.244\\Version=EM64L-G09Re
 vC.01\State=1-A\HF=-560.0522051\RMSD=7.834e-09\Dipole=-0.3352322,-0.52
 09931,-0.0661754\Quadrupole=0.8142528,-0.034333,-0.7799198,-2.0474747,
 2.3360855,2.098953\PG=C01 [X(C3H10O2Si1)]\\@


 THE TRULY SUCCESSFUL PERFORMANCE OF RESEARCHES IN
 INORGANIC CHEMISTRY IS POSSIBLE ONLY TO ONE WHO IS NOT
 ONLY A THEORETICAL CHEMIST, BUT ALSO AN ACCOMPLISHED
 ANALYST AND, MOREOVER, NOT MERELY A PRACTICALLY TRAINED,
 MECHANICAL WORKER, BUT A THINKING CREATIVE ARTIST.
   --  CLEMENS WINKLER, BER. 33, 1697(1900)
 Job cpu time:  0 days  0 hours 12 minutes 31.2 seconds.
 File lengths (MBytes):  RWF=     40 Int=      0 D2E=      0 Chk=      3 Scr=      1
 Normal termination of Gaussian 09 at Wed Aug  8 11:46:09 2018.
