 Entering Gaussian System, Link 0=g09
 Initial command:
 /usr/local/gaussian09/g09/l1.exe /scratch/renato/Gau-4066.inp -scrdir=/scratch/renato/
 Entering Link 1 = /usr/local/gaussian09/g09/l1.exe PID=      4068.
  
 Copyright (c) 1988,1990,1992,1993,1995,1998,2003,2009,2011,
            Gaussian, Inc.  All Rights Reserved.
  
 This is part of the Gaussian(R) 09 program.  It is based on
 the Gaussian(R) 03 system (copyright 2003, Gaussian, Inc.),
 the Gaussian(R) 98 system (copyright 1998, Gaussian, Inc.),
 the Gaussian(R) 94 system (copyright 1995, Gaussian, Inc.),
 the Gaussian 92(TM) system (copyright 1992, Gaussian, Inc.),
 the Gaussian 90(TM) system (copyright 1990, Gaussian, Inc.),
 the Gaussian 88(TM) system (copyright 1988, Gaussian, Inc.),
 the Gaussian 86(TM) system (copyright 1986, Carnegie Mellon
 University), and the Gaussian 82(TM) system (copyright 1983,
 Carnegie Mellon University). Gaussian is a federally registered
 trademark of Gaussian, Inc.
  
 This software contains proprietary and confidential information,
 including trade secrets, belonging to Gaussian, Inc.
  
 This software is provided under written license and may be
 used, copied, transmitted, or stored only in accord with that
 written license.
  
 The following legend is applicable only to US Government
 contracts under FAR:
  
                    RESTRICTED RIGHTS LEGEND
  
 Use, reproduction and disclosure by the US Government is
 subject to restrictions as set forth in subparagraphs (a)
 and (c) of the Commercial Computer Software - Restricted
 Rights clause in FAR 52.227-19.
  
 Gaussian, Inc.
 340 Quinnipiac St., Bldg. 40, Wallingford CT 06492
  
  
 ---------------------------------------------------------------
 Warning -- This program may not be used in any manner that
 competes with the business of Gaussian, Inc. or will provide
 assistance to any competitor of Gaussian, Inc.  The licensee
 of this program is prohibited from giving any competitor of
 Gaussian, Inc. access to this program.  By using this program,
 the user acknowledges that Gaussian, Inc. is engaged in the
 business of creating and licensing software in the field of
 computational chemistry and represents and warrants to the
 licensee that it is not a competitor of Gaussian, Inc. and that
 it will not use this program in any manner prohibited above.
 ---------------------------------------------------------------
  

 Cite this work as:
 Gaussian 09, Revision C.01,
 M. J. Frisch, G. W. Trucks, H. B. Schlegel, G. E. Scuseria, 
 M. A. Robb, J. R. Cheeseman, G. Scalmani, V. Barone, B. Mennucci, 
 G. A. Petersson, H. Nakatsuji, M. Caricato, X. Li, H. P. Hratchian, 
 A. F. Izmaylov, J. Bloino, G. Zheng, J. L. Sonnenberg, M. Hada, 
 M. Ehara, K. Toyota, R. Fukuda, J. Hasegawa, M. Ishida, T. Nakajima, 
 Y. Honda, O. Kitao, H. Nakai, T. Vreven, J. A. Montgomery, Jr., 
 J. E. Peralta, F. Ogliaro, M. Bearpark, J. J. Heyd, E. Brothers, 
 K. N. Kudin, V. N. Staroverov, T. Keith, R. Kobayashi, J. Normand, 
 K. Raghavachari, A. Rendell, J. C. Burant, S. S. Iyengar, J. Tomasi, 
 M. Cossi, N. Rega, J. M. Millam, M. Klene, J. E. Knox, J. B. Cross, 
 V. Bakken, C. Adamo, J. Jaramillo, R. Gomperts, R. E. Stratmann, 
 O. Yazyev, A. J. Austin, R. Cammi, C. Pomelli, J. W. Ochterski, 
 R. L. Martin, K. Morokuma, V. G. Zakrzewski, G. A. Voth, 
 P. Salvador, J. J. Dannenberg, S. Dapprich, A. D. Daniels, 
 O. Farkas, J. B. Foresman, J. V. Ortiz, J. Cioslowski, 
 and D. J. Fox, Gaussian, Inc., Wallingford CT, 2010.
 
 ******************************************
 Gaussian 09:  EM64L-G09RevC.01 23-Sep-2011
                 8-Aug-2018 
 ******************************************
 %nproc=2
 Will use up to    2 processors via shared memory.
 %mem=256MB
 %RWF=a13.rwf
 %chk=a13114
 %NoSave
 --------------------------------------
 #SP PBE1PBE/Def2TZVP geom=connectivity
 --------------------------------------
 1/38=1,57=2/1;
 2/12=2,17=6,18=5,40=1/2;
 3/5=44,7=101,11=2,16=1,25=1,30=1,74=-13/1,2,3;
 4//1;
 5/5=2,38=5/2;
 6/7=2,8=2,9=2,10=2,28=1/1;
 99/5=1,9=1/99;
 --------------
 Structure: 114
 --------------
 Charge =  0 Multiplicity = 1
 Symbolic Z-Matrix:
 H                     0.        0.        0. 
 C                     1.093     0.        0. 
 C                     1.655     1.421     0. 
 H                     1.41     -0.56     -0.885 
 H                     1.424    -0.557     0.88 
 H                     1.308     1.969    -0.883 
 Si                    3.513     1.515     0.035 
 H                     1.282     1.975     0.868 
 O                     4.589     0.91     -1.058 
 O                     3.968     0.824     1.454 
 H                     4.029     2.906    -0.04 
 H                     4.522    -0.02     -1.276 
 C                     5.301     0.766     1.905 
 H                     5.308     0.322     2.902 
 H                     5.747     1.766     1.967 
 H                     5.921     0.153     1.244 
 
                          Input orientation:                          
 ---------------------------------------------------------------------
 Center     Atomic      Atomic             Coordinates (Angstroms)
 Number     Number       Type             X           Y           Z
 ---------------------------------------------------------------------
      1          1           0        0.000000    0.000000    0.000000
      2          6           0        1.093000    0.000000    0.000000
      3          6           0        1.655000    1.421000    0.000000
      4          1           0        1.410000   -0.560000   -0.885000
      5          1           0        1.424000   -0.557000    0.880000
      6          1           0        1.308000    1.969000   -0.883000
      7         14           0        3.513000    1.515000    0.035000
      8          1           0        1.282000    1.975000    0.868000
      9          8           0        4.589000    0.910000   -1.058000
     10          8           0        3.968000    0.824000    1.454000
     11          1           0        4.029000    2.906000   -0.040000
     12          1           0        4.522000   -0.020000   -1.276000
     13          6           0        5.301000    0.766000    1.905000
     14          1           0        5.308000    0.322000    2.902000
     15          1           0        5.747000    1.766000    1.967000
     16          1           0        5.921000    0.153000    1.244000
 ---------------------------------------------------------------------
                    Distance matrix (angstroms):
                    1          2          3          4          5
     1  H    0.000000
     2  C    1.093000   0.000000
     3  C    2.181345   1.528098   0.000000
     4  H    1.756395   1.094218   2.183486   0.000000
     5  H    1.764207   1.092799   2.177210   1.765058   0.000000
     6  H    2.523393   2.168611   1.095629   2.531057   3.082580
     7  Si   3.825914   2.855320   1.860706   3.094291   3.061230
     8  H    2.509497   2.165588   1.095203   3.084740   2.536007
     9  O    4.796497   3.764237   3.160513   3.506689   3.990634
    10  O    4.305591   3.325465   2.796515   3.732257   2.951029
    11  H    4.967824   4.131166   2.800482   4.425646   4.429988
    12  H    4.698623   3.658773   3.453165   3.182613   3.812389
    13  C    5.684750   4.682205   4.165497   4.968124   4.222805
    14  H    6.058065   5.127525   4.793101   5.505788   4.466160
    15  H    6.325809   5.352342   4.553304   5.688036   5.026552
    16  H    6.052205   4.988039   4.621051   5.038862   4.567232
                    6          7          8          9         10
     6  H    0.000000
     7  Si   2.431227   0.000000
     8  H    1.751203   2.425459   0.000000
     9  O    3.452111   1.648772   3.972399   0.000000
    10  O    3.721316   1.642579   2.980401   2.589050   0.000000
    11  H    2.998743   1.485517   3.039282   2.309532   2.563295
    12  H    3.800048   2.256774   4.367420   0.957556   2.910696
    13  C    5.016393   2.693482   4.323125   3.050746   1.408423
    14  H    5.747942   3.586776   4.803982   4.067469   2.035757
    15  H    5.279056   2.964183   4.603011   3.350272   2.077348
    16  H    5.394604   3.019137   4.998138   2.765226   2.075705
                   11         12         13         14         15
    11  H    0.000000
    12  H    3.214377   0.000000
    13  C    3.159210   3.367996   0.000000
    14  H    4.119255   4.265026   1.091418   0.000000
    15  H    2.877355   3.899676   1.096704   1.775410   0.000000
    16  H    3.578733   2.887478   1.094116   1.775752   1.776168
                   16
    16  H    0.000000
 Stoichiometry    C3H10O2Si
 Framework group  C1[X(C3H10O2Si)]
 Deg. of freedom    42
 Full point group                 C1      NOp   1
 Largest Abelian subgroup         C1      NOp   1
 Largest concise Abelian subgroup C1      NOp   1
                         Standard orientation:                         
 ---------------------------------------------------------------------
 Center     Atomic      Atomic             Coordinates (Angstroms)
 Number     Number       Type             X           Y           Z
 ---------------------------------------------------------------------
      1          1           0       -3.369079   -0.984954   -0.506787
      2          6           0       -2.342963   -0.644856   -0.668240
      3          6           0       -1.717500   -0.113820    0.620900
      4          1           0       -2.382601    0.124710   -1.445100
      5          1           0       -1.773583   -1.488175   -1.066776
      6          1           0       -2.303532    0.725015    1.012466
      7         14           0        0.045089    0.455791    0.444698
      8          1           0       -1.736585   -0.886731    1.396602
      9          8           0        0.644709    1.640925   -0.532218
     10          8           0        0.903560   -0.876637    0.013732
     11          1           0        0.599990    1.033748    1.695623
     12          1           0        0.444195    1.586822   -1.466980
     13          6           0        2.303203   -0.889833   -0.142720
     14          1           0        2.615677   -1.912901   -0.359256
     15          1           0        2.811698   -0.557249    0.770286
     16          1           0        2.619971   -0.244613   -0.967607
 ---------------------------------------------------------------------
 Rotational constants (GHZ):      4.1592918      1.8773433      1.5611680
 Standard basis: def2TZVP (5D, 7F)
 There are   252 symmetry adapted basis functions of A   symmetry.
 Integral buffers will be    131072 words long.
 Raffenetti 2 integral format.
 Two-electron integral symmetry is turned on.
   252 basis functions,   404 primitive gaussians,   282 cartesian basis functions
    29 alpha electrons       29 beta electrons
       nuclear repulsion energy       329.6893345571 Hartrees.
 NAtoms=   16 NActive=   16 NUniq=   16 SFac= 1.00D+00 NAtFMM=   60 NAOKFM=F Big=F
 One-electron integrals computed using PRISM.
   1 Symmetry operations used in ECPInt.
 ECPInt:  NShTT=    5886 NPrTT=   17754 LenC2=    5776 LenP2D=   13907.
 LDataN:  DoStor=T MaxTD1= 6 Len=  172
 NBasis=   252 RedAO= T  NBF=   252
 NBsUse=   252 1.00D-06 NBFU=   252
 Harris functional with IExCor= 1009 diagonalized for initial guess.
 ExpMin= 7.01D-02 ExpMax= 4.48D+04 ExpMxC= 1.53D+03 IAcc=2 IRadAn=         4 AccDes= 0.00D+00
 HarFok:  IExCor= 1009 AccDes= 0.00D+00 IRadAn=         4 IDoV= 1
 ScaDFX=  1.000000  1.000000  1.000000  1.000000
 FoFCou: FMM=F IPFlag=           0 FMFlag=      100000 FMFlg1=           0
         NFxFlg=           0 DoJE=T BraDBF=F KetDBF=T FulRan=T
         Omega=  0.000000  0.000000  1.000000  0.000000  0.000000 ICntrl=     500 IOpCl=  0
         NMat0=    1 NMatS0=    1 NMatT0=    0 NMatD0=    1 NMtDS0=    0 NMtDT0=    0
         I1Cent=           4 NGrid=           0.
 Petite list used in FoFCou.
 Initial guess orbital symmetries:
       Occupied  (A) (A) (A) (A) (A) (A) (A) (A) (A) (A) (A) (A)
                 (A) (A) (A) (A) (A) (A) (A) (A) (A) (A) (A) (A)
                 (A) (A) (A) (A) (A)
       Virtual   (A) (A) (A) (A) (A) (A) (A) (A) (A) (A) (A) (A)
                 (A) (A) (A) (A) (A) (A) (A) (A) (A) (A) (A) (A)
                 (A) (A) (A) (A) (A) (A) (A) (A) (A) (A) (A) (A)
                 (A) (A) (A) (A) (A) (A) (A) (A) (A) (A) (A) (A)
                 (A) (A) (A) (A) (A) (A) (A) (A) (A) (A) (A) (A)
                 (A) (A) (A) (A) (A) (A) (A) (A) (A) (A) (A) (A)
                 (A) (A) (A) (A) (A) (A) (A) (A) (A) (A) (A) (A)
                 (A) (A) (A) (A) (A) (A) (A) (A) (A) (A) (A) (A)
                 (A) (A) (A) (A) (A) (A) (A) (A) (A) (A) (A) (A)
                 (A) (A) (A) (A) (A) (A) (A) (A) (A) (A) (A) (A)
                 (A) (A) (A) (A) (A) (A) (A) (A) (A) (A) (A) (A)
                 (A) (A) (A) (A) (A) (A) (A) (A) (A) (A) (A) (A)
                 (A) (A) (A) (A) (A) (A) (A) (A) (A) (A) (A) (A)
                 (A) (A) (A) (A) (A) (A) (A) (A) (A) (A) (A) (A)
                 (A) (A) (A) (A) (A) (A) (A) (A) (A) (A) (A) (A)
                 (A) (A) (A) (A) (A) (A) (A) (A) (A) (A) (A) (A)
                 (A) (A) (A) (A) (A) (A) (A) (A) (A) (A) (A) (A)
                 (A) (A) (A) (A) (A) (A) (A) (A) (A) (A) (A) (A)
                 (A) (A) (A) (A) (A) (A) (A)
 The electronic state of the initial guess is 1-A.
 Requested convergence on RMS density matrix=1.00D-08 within 128 cycles.
 Requested convergence on MAX density matrix=1.00D-06.
 Requested convergence on             energy=1.00D-06.
 No special actions if energy rises.
 Integral accuracy reduced to 1.0D-05 until final iterations.
 Initial convergence to 1.0D-05 achieved.  Increase integral accuracy.
 SCF Done:  E(RPBE1PBE) =  -560.052573852     A.U. after   12 cycles
             Convg  =    0.7875D-08             -V/T =  2.0032

 **********************************************************************

            Population analysis using the SCF density.

 **********************************************************************

 Orbital symmetries:
       Occupied  (A) (A) (A) (A) (A) (A) (A) (A) (A) (A) (A) (A)
                 (A) (A) (A) (A) (A) (A) (A) (A) (A) (A) (A) (A)
                 (A) (A) (A) (A) (A)
       Virtual   (A) (A) (A) (A) (A) (A) (A) (A) (A) (A) (A) (A)
                 (A) (A) (A) (A) (A) (A) (A) (A) (A) (A) (A) (A)
                 (A) (A) (A) (A) (A) (A) (A) (A) (A) (A) (A) (A)
                 (A) (A) (A) (A) (A) (A) (A) (A) (A) (A) (A) (A)
                 (A) (A) (A) (A) (A) (A) (A) (A) (A) (A) (A) (A)
                 (A) (A) (A) (A) (A) (A) (A) (A) (A) (A) (A) (A)
                 (A) (A) (A) (A) (A) (A) (A) (A) (A) (A) (A) (A)
                 (A) (A) (A) (A) (A) (A) (A) (A) (A) (A) (A) (A)
                 (A) (A) (A) (A) (A) (A) (A) (A) (A) (A) (A) (A)
                 (A) (A) (A) (A) (A) (A) (A) (A) (A) (A) (A) (A)
                 (A) (A) (A) (A) (A) (A) (A) (A) (A) (A) (A) (A)
                 (A) (A) (A) (A) (A) (A) (A) (A) (A) (A) (A) (A)
                 (A) (A) (A) (A) (A) (A) (A) (A) (A) (A) (A) (A)
                 (A) (A) (A) (A) (A) (A) (A) (A) (A) (A) (A) (A)
                 (A) (A) (A) (A) (A) (A) (A) (A) (A) (A) (A) (A)
                 (A) (A) (A) (A) (A) (A) (A) (A) (A) (A) (A) (A)
                 (A) (A) (A) (A) (A) (A) (A) (A) (A) (A) (A) (A)
                 (A) (A) (A) (A) (A) (A) (A) (A) (A) (A) (A) (A)
                 (A) (A) (A) (A) (A) (A) (A)
 The electronic state is 1-A.
 Alpha  occ. eigenvalues --  -66.25318 -19.20227 -19.19177 -10.25865 -10.22061
 Alpha  occ. eigenvalues --  -10.21899  -5.32988  -3.66558  -3.66384  -3.66228
 Alpha  occ. eigenvalues --   -1.04234  -1.01753  -0.78812  -0.69986  -0.64534
 Alpha  occ. eigenvalues --   -0.56747  -0.50650  -0.46595  -0.46408  -0.46075
 Alpha  occ. eigenvalues --   -0.43560  -0.40860  -0.39404  -0.37045  -0.36805
 Alpha  occ. eigenvalues --   -0.35524  -0.31532  -0.30392  -0.29177
 Alpha virt. eigenvalues --    0.01573   0.05438   0.05948   0.07989   0.08940
 Alpha virt. eigenvalues --    0.09941   0.10208   0.11963   0.12699   0.13476
 Alpha virt. eigenvalues --    0.14017   0.15151   0.15696   0.16103   0.19038
 Alpha virt. eigenvalues --    0.21387   0.21862   0.23731   0.24378   0.24683
 Alpha virt. eigenvalues --    0.26511   0.27807   0.29443   0.30638   0.31074
 Alpha virt. eigenvalues --    0.34542   0.37344   0.39721   0.40584   0.40908
 Alpha virt. eigenvalues --    0.41750   0.42663   0.43973   0.45046   0.45764
 Alpha virt. eigenvalues --    0.47403   0.47477   0.48263   0.49139   0.50714
 Alpha virt. eigenvalues --    0.51190   0.54041   0.55994   0.56715   0.57720
 Alpha virt. eigenvalues --    0.60718   0.62623   0.64111   0.66834   0.69591
 Alpha virt. eigenvalues --    0.72341   0.74035   0.77235   0.78628   0.81067
 Alpha virt. eigenvalues --    0.82395   0.85103   0.86085   0.89460   0.91833
 Alpha virt. eigenvalues --    0.93455   0.95991   0.96538   0.99545   1.01075
 Alpha virt. eigenvalues --    1.04428   1.06936   1.07962   1.08862   1.11022
 Alpha virt. eigenvalues --    1.12159   1.12373   1.14531   1.16884   1.22584
 Alpha virt. eigenvalues --    1.27693   1.29331   1.31087   1.37634   1.38706
 Alpha virt. eigenvalues --    1.41821   1.45395   1.47448   1.50793   1.52213
 Alpha virt. eigenvalues --    1.53490   1.54242   1.55297   1.56763   1.57101
 Alpha virt. eigenvalues --    1.60125   1.61313   1.61725   1.64289   1.65829
 Alpha virt. eigenvalues --    1.67252   1.72281   1.74967   1.75810   1.79471
 Alpha virt. eigenvalues --    1.81926   1.83045   1.88813   1.90550   1.93129
 Alpha virt. eigenvalues --    1.94541   1.95942   1.98998   1.99319   2.04122
 Alpha virt. eigenvalues --    2.05480   2.09263   2.11071   2.12135   2.15618
 Alpha virt. eigenvalues --    2.16655   2.19140   2.27568   2.29630   2.30622
 Alpha virt. eigenvalues --    2.32761   2.33239   2.35091   2.35771   2.36323
 Alpha virt. eigenvalues --    2.38414   2.41915   2.45854   2.46862   2.48482
 Alpha virt. eigenvalues --    2.51751   2.52398   2.54246   2.56718   2.58315
 Alpha virt. eigenvalues --    2.60082   2.60965   2.65341   2.66400   2.71986
 Alpha virt. eigenvalues --    2.73309   2.78506   2.81021   2.83984   2.85223
 Alpha virt. eigenvalues --    2.89667   2.93736   2.97156   2.99332   3.03787
 Alpha virt. eigenvalues --    3.05940   3.08996   3.11299   3.11405   3.15336
 Alpha virt. eigenvalues --    3.21324   3.21761   3.23236   3.27762   3.31405
 Alpha virt. eigenvalues --    3.31992   3.33672   3.36983   3.40294   3.44299
 Alpha virt. eigenvalues --    3.45567   3.47032   3.50419   3.53109   3.55018
 Alpha virt. eigenvalues --    3.58413   3.59326   3.64118   3.67036   3.76977
 Alpha virt. eigenvalues --    3.80244   3.88658   3.91638   3.95366   4.02170
 Alpha virt. eigenvalues --    4.19947   4.23503   4.26566   4.33932   4.37860
 Alpha virt. eigenvalues --    4.41662   4.46235   4.53392   4.56904   4.78136
 Alpha virt. eigenvalues --    5.15431   5.16492   5.18196   5.19905   5.29093
 Alpha virt. eigenvalues --    5.31801   5.39164   5.41888   5.45871   5.50343
 Alpha virt. eigenvalues --    5.80214   5.87975   6.04622   6.24477   6.38265
 Alpha virt. eigenvalues --    6.40518   6.53771   6.57340   6.61888   6.69480
 Alpha virt. eigenvalues --    6.72079   6.78372   6.81912   7.01337   7.08627
 Alpha virt. eigenvalues --    7.13416   7.21322  11.88416  22.37158  22.40611
 Alpha virt. eigenvalues --   22.45414  43.62301  43.94280
          Condensed to atoms (all electrons):
              1          2          3          4          5          6
     1  H    0.553410   0.408357  -0.033832  -0.026579  -0.024443  -0.006771
     2  C    0.408357   4.932518   0.316464   0.404682   0.413640  -0.030993
     3  C   -0.033832   0.316464   5.058217  -0.042652  -0.039649   0.386892
     4  H   -0.026579   0.404682  -0.042652   0.573086  -0.026031  -0.004494
     5  H   -0.024443   0.413640  -0.039649  -0.026031   0.528369   0.007631
     6  H   -0.006771  -0.030993   0.386892  -0.004494   0.007631   0.573759
     7  Si   0.006377  -0.023206   0.389096  -0.003102  -0.007918  -0.028664
     8  H   -0.006977  -0.026653   0.375620   0.007701  -0.004029  -0.024708
     9  O   -0.000114  -0.002523  -0.030635   0.001885  -0.000144   0.000052
    10  O    0.000001  -0.004068  -0.030710  -0.000072   0.007829   0.001366
    11  H   -0.000145   0.001959  -0.039511   0.000206   0.000408   0.001352
    12  H   -0.000056  -0.000011  -0.003012   0.000854   0.000063   0.000028
    13  C    0.000002   0.000008   0.000772   0.000077  -0.000037  -0.000108
    14  H   -0.000003   0.000239  -0.000245  -0.000004  -0.000172  -0.000001
    15  H    0.000000  -0.000030  -0.000023  -0.000005   0.000086   0.000012
    16  H    0.000001  -0.000248   0.000781   0.000012   0.000021   0.000012
              7          8          9         10         11         12
     1  H    0.006377  -0.006977  -0.000114   0.000001  -0.000145  -0.000056
     2  C   -0.023206  -0.026653  -0.002523  -0.004068   0.001959  -0.000011
     3  C    0.389096   0.375620  -0.030635  -0.030710  -0.039511  -0.003012
     4  H   -0.003102   0.007701   0.001885  -0.000072   0.000206   0.000854
     5  H   -0.007918  -0.004029  -0.000144   0.007829   0.000408   0.000063
     6  H   -0.028664  -0.024708   0.000052   0.001366   0.001352   0.000028
     7  Si  11.911874  -0.008737   0.480683   0.459225   0.389188  -0.028824
     8  H   -0.008737   0.555809   0.000910   0.000992   0.000161  -0.000041
     9  O    0.480683   0.000910   7.847496  -0.045739  -0.025850   0.293944
    10  O    0.459225   0.000992  -0.045739   7.848064  -0.026687  -0.000785
    11  H    0.389188   0.000161  -0.025850  -0.026687   0.757391   0.006802
    12  H   -0.028824  -0.000041   0.293944  -0.000785   0.006802   0.419401
    13  C   -0.052639   0.000077  -0.013986   0.266273   0.003155   0.000997
    14  H    0.008058  -0.000009   0.000429  -0.039600  -0.000280   0.000016
    15  H   -0.016563  -0.000029  -0.000393  -0.043527   0.010936   0.000133
    16  H   -0.004768  -0.000008   0.010763  -0.045928  -0.001814   0.000400
             13         14         15         16
     1  H    0.000002  -0.000003   0.000000   0.000001
     2  C    0.000008   0.000239  -0.000030  -0.000248
     3  C    0.000772  -0.000245  -0.000023   0.000781
     4  H    0.000077  -0.000004  -0.000005   0.000012
     5  H   -0.000037  -0.000172   0.000086   0.000021
     6  H   -0.000108  -0.000001   0.000012   0.000012
     7  Si  -0.052639   0.008058  -0.016563  -0.004768
     8  H    0.000077  -0.000009  -0.000029  -0.000008
     9  O   -0.013986   0.000429  -0.000393   0.010763
    10  O    0.266273  -0.039600  -0.043527  -0.045928
    11  H    0.003155  -0.000280   0.010936  -0.001814
    12  H    0.000997   0.000016   0.000133   0.000400
    13  C    4.765202   0.400517   0.418015   0.408876
    14  H    0.400517   0.572025  -0.031797  -0.035164
    15  H    0.418015  -0.031797   0.592993  -0.045491
    16  H    0.408876  -0.035164  -0.045491   0.602778
 Mulliken atomic charges:
              1
     1  H    0.130770
     2  C   -0.390135
     3  C   -0.307572
     4  H    0.114435
     5  H    0.144375
     6  H    0.124634
     7  Si   0.529919
     8  H    0.129920
     9  O   -0.516778
    10  O   -0.346634
    11  H   -0.077270
    12  H    0.310090
    13  C   -0.197200
    14  H    0.125991
    15  H    0.115682
    16  H    0.109775
 Sum of Mulliken atomic charges =   0.00000
 Mulliken charges with hydrogens summed into heavy atoms:
              1
     2  C   -0.000556
     3  C   -0.053018
     7  Si   0.452649
     9  O   -0.206688
    10  O   -0.346634
    13  C    0.154247
 Sum of Mulliken charges with hydrogens summed into heavy atoms =   0.00000
 Electronic spatial extent (au):  <R**2>=            871.7494
 Charge=              0.0000 electrons
 Dipole moment (field-independent basis, Debye):
    X=             -0.9370    Y=             -0.4479    Z=             -1.1799  Tot=              1.5719
 Quadrupole moment (field-independent basis, Debye-Ang):
   XX=            -41.8236   YY=            -48.7496   ZZ=            -42.7478
   XY=             -2.3776   XZ=             -1.2392   YZ=             -2.2729
 Traceless Quadrupole moment (field-independent basis, Debye-Ang):
   XX=              2.6167   YY=             -4.3093   ZZ=              1.6926
   XY=             -2.3776   XZ=             -1.2392   YZ=             -2.2729
 Octapole moment (field-independent basis, Debye-Ang**2):
  XXX=             11.5167  YYY=             -5.2857  ZZZ=            -11.8449  XYY=             -1.6256
  XXY=             -4.1980  XXZ=             -0.0747  XZZ=              2.6890  YZZ=              4.6656
  YYZ=             -4.0842  XYZ=              0.1842
 Hexadecapole moment (field-independent basis, Debye-Ang**3):
 XXXX=           -723.5925 YYYY=           -285.2683 ZZZZ=           -159.7187 XXXY=             -9.2907
 XXXZ=             -6.5577 YYYX=            -11.7525 YYYZ=             -8.0716 ZZZX=             -8.5666
 ZZZY=            -22.0008 XXYY=           -166.1450 XXZZ=           -151.3147 YYZZ=            -64.8044
 XXYZ=             -1.8555 YYXZ=             -4.5529 ZZXY=              1.1231
 N-N= 3.296893345571D+02 E-N=-1.983414399945D+03  KE= 5.582640822389D+02
 1\1\GINC-TARSUS4\SP\RPBE1PBE\def2TZVP\C3H10O2Si1\RENATO\08-Aug-2018\0\
 \#SP PBE1PBE/Def2TZVP geom=connectivity\\Structure: 114\\0,1\H,0,0.,0.
 ,0.\C,0,1.093,0.,0.\C,0,1.655,1.421,0.\H,0,1.41,-0.56,-0.885\H,0,1.424
 ,-0.557,0.88\H,0,1.308,1.969,-0.883\Si,0,3.513,1.515,0.035\H,0,1.282,1
 .975,0.868\O,0,4.589,0.91,-1.058\O,0,3.968,0.824,1.454\H,0,4.029,2.906
 ,-0.04\H,0,4.522,-0.02,-1.276\C,0,5.301,0.766,1.905\H,0,5.308,0.322,2.
 902\H,0,5.747,1.766,1.967\H,0,5.921,0.153,1.244\\Version=EM64L-G09RevC
 .01\State=1-A\HF=-560.0525739\RMSD=7.875e-09\Dipole=-0.3323539,-0.5177
 993,-0.0621406\Quadrupole=0.8100388,-0.0201975,-0.7898413,-2.0283745,2
 .3458309,2.0947309\PG=C01 [X(C3H10O2Si1)]\\@


 GARLIC THEN HAVE POWER TO SAVE FROM DEATH
 BEAR WITH IT THOUGH IT MAKETH UNSAVORY BREATH,
 AND SCORN NOT GARLIC LIKE SOME THAT THINK
 IT ONLY MAKETH MEN WINK AND DRINK AND STINK.
   --  SIR JOHN HARRINGTON,
       "THE ENGLISHMAN'S DOCTOR", 1609
 Job cpu time:  0 days  0 hours 12 minutes 47.9 seconds.
 File lengths (MBytes):  RWF=     40 Int=      0 D2E=      0 Chk=      3 Scr=      1
 Normal termination of Gaussian 09 at Wed Aug  8 11:39:50 2018.
