 Entering Gaussian System, Link 0=g09
 Initial command:
 /usr/local/gaussian09/g09/l1.exe /scratch/renato/Gau-4503.inp -scrdir=/scratch/renato/
 Entering Link 1 = /usr/local/gaussian09/g09/l1.exe PID=      4505.
  
 Copyright (c) 1988,1990,1992,1993,1995,1998,2003,2009,2011,
            Gaussian, Inc.  All Rights Reserved.
  
 This is part of the Gaussian(R) 09 program.  It is based on
 the Gaussian(R) 03 system (copyright 2003, Gaussian, Inc.),
 the Gaussian(R) 98 system (copyright 1998, Gaussian, Inc.),
 the Gaussian(R) 94 system (copyright 1995, Gaussian, Inc.),
 the Gaussian 92(TM) system (copyright 1992, Gaussian, Inc.),
 the Gaussian 90(TM) system (copyright 1990, Gaussian, Inc.),
 the Gaussian 88(TM) system (copyright 1988, Gaussian, Inc.),
 the Gaussian 86(TM) system (copyright 1986, Carnegie Mellon
 University), and the Gaussian 82(TM) system (copyright 1983,
 Carnegie Mellon University). Gaussian is a federally registered
 trademark of Gaussian, Inc.
  
 This software contains proprietary and confidential information,
 including trade secrets, belonging to Gaussian, Inc.
  
 This software is provided under written license and may be
 used, copied, transmitted, or stored only in accord with that
 written license.
  
 The following legend is applicable only to US Government
 contracts under FAR:
  
                    RESTRICTED RIGHTS LEGEND
  
 Use, reproduction and disclosure by the US Government is
 subject to restrictions as set forth in subparagraphs (a)
 and (c) of the Commercial Computer Software - Restricted
 Rights clause in FAR 52.227-19.
  
 Gaussian, Inc.
 340 Quinnipiac St., Bldg. 40, Wallingford CT 06492
  
  
 ---------------------------------------------------------------
 Warning -- This program may not be used in any manner that
 competes with the business of Gaussian, Inc. or will provide
 assistance to any competitor of Gaussian, Inc.  The licensee
 of this program is prohibited from giving any competitor of
 Gaussian, Inc. access to this program.  By using this program,
 the user acknowledges that Gaussian, Inc. is engaged in the
 business of creating and licensing software in the field of
 computational chemistry and represents and warrants to the
 licensee that it is not a competitor of Gaussian, Inc. and that
 it will not use this program in any manner prohibited above.
 ---------------------------------------------------------------
  

 Cite this work as:
 Gaussian 09, Revision C.01,
 M. J. Frisch, G. W. Trucks, H. B. Schlegel, G. E. Scuseria, 
 M. A. Robb, J. R. Cheeseman, G. Scalmani, V. Barone, B. Mennucci, 
 G. A. Petersson, H. Nakatsuji, M. Caricato, X. Li, H. P. Hratchian, 
 A. F. Izmaylov, J. Bloino, G. Zheng, J. L. Sonnenberg, M. Hada, 
 M. Ehara, K. Toyota, R. Fukuda, J. Hasegawa, M. Ishida, T. Nakajima, 
 Y. Honda, O. Kitao, H. Nakai, T. Vreven, J. A. Montgomery, Jr., 
 J. E. Peralta, F. Ogliaro, M. Bearpark, J. J. Heyd, E. Brothers, 
 K. N. Kudin, V. N. Staroverov, T. Keith, R. Kobayashi, J. Normand, 
 K. Raghavachari, A. Rendell, J. C. Burant, S. S. Iyengar, J. Tomasi, 
 M. Cossi, N. Rega, J. M. Millam, M. Klene, J. E. Knox, J. B. Cross, 
 V. Bakken, C. Adamo, J. Jaramillo, R. Gomperts, R. E. Stratmann, 
 O. Yazyev, A. J. Austin, R. Cammi, C. Pomelli, J. W. Ochterski, 
 R. L. Martin, K. Morokuma, V. G. Zakrzewski, G. A. Voth, 
 P. Salvador, J. J. Dannenberg, S. Dapprich, A. D. Daniels, 
 O. Farkas, J. B. Foresman, J. V. Ortiz, J. Cioslowski, 
 and D. J. Fox, Gaussian, Inc., Wallingford CT, 2010.
 
 ******************************************
 Gaussian 09:  EM64L-G09RevC.01 23-Sep-2011
                 8-Aug-2018 
 ******************************************
 %nproc=2
 Will use up to    2 processors via shared memory.
 %mem=256MB
 %RWF=a13.rwf
 %chk=a13119
 %NoSave
 --------------------------------------
 #SP PBE1PBE/Def2TZVP geom=connectivity
 --------------------------------------
 1/38=1,57=2/1;
 2/12=2,17=6,18=5,40=1/2;
 3/5=44,7=101,11=2,16=1,25=1,30=1,74=-13/1,2,3;
 4//1;
 5/5=2,38=5/2;
 6/7=2,8=2,9=2,10=2,28=1/1;
 99/5=1,9=1/99;
 --------------
 Structure: 119
 --------------
 Charge =  0 Multiplicity = 1
 Symbolic Z-Matrix:
 H                     0.        0.        0. 
 C                     1.093     0.        0. 
 C                     1.655     1.421     0. 
 H                     1.41     -0.56     -0.885 
 H                     1.424    -0.557     0.88 
 H                     1.308     1.969    -0.883 
 Si                    3.513     1.515     0.035 
 H                     1.282     1.975     0.868 
 O                     4.625     0.928    -1.031 
 O                     3.968     0.824     1.454 
 H                     4.029     2.906    -0.04 
 H                     4.577    -0.004    -1.252 
 C                     5.301     0.766     1.905 
 H                     5.308     0.322     2.902 
 H                     5.747     1.766     1.967 
 H                     5.921     0.153     1.244 
 
                          Input orientation:                          
 ---------------------------------------------------------------------
 Center     Atomic      Atomic             Coordinates (Angstroms)
 Number     Number       Type             X           Y           Z
 ---------------------------------------------------------------------
      1          1           0        0.000000    0.000000    0.000000
      2          6           0        1.093000    0.000000    0.000000
      3          6           0        1.655000    1.421000    0.000000
      4          1           0        1.410000   -0.560000   -0.885000
      5          1           0        1.424000   -0.557000    0.880000
      6          1           0        1.308000    1.969000   -0.883000
      7         14           0        3.513000    1.515000    0.035000
      8          1           0        1.282000    1.975000    0.868000
      9          8           0        4.625000    0.928000   -1.031000
     10          8           0        3.968000    0.824000    1.454000
     11          1           0        4.029000    2.906000   -0.040000
     12          1           0        4.577000   -0.004000   -1.252000
     13          6           0        5.301000    0.766000    1.905000
     14          1           0        5.308000    0.322000    2.902000
     15          1           0        5.747000    1.766000    1.967000
     16          1           0        5.921000    0.153000    1.244000
 ---------------------------------------------------------------------
                    Distance matrix (angstroms):
                    1          2          3          4          5
     1  H    0.000000
     2  C    1.093000   0.000000
     3  C    2.181345   1.528098   0.000000
     4  H    1.756395   1.094218   2.183486   0.000000
     5  H    1.764207   1.092799   2.177210   1.765058   0.000000
     6  H    2.523393   2.168611   1.095629   2.531057   3.082580
     7  Si   3.825914   2.855320   1.860706   3.094291   3.061230
     8  H    2.509497   2.165588   1.095203   3.084740   2.536007
     9  O    4.828537   3.794624   3.182281   3.545657   4.012923
    10  O    4.305591   3.325465   2.796515   3.732257   2.951029
    11  H    4.967824   4.131166   2.800482   4.425646   4.429988
    12  H    4.745150   3.702131   3.483707   3.236312   3.846120
    13  C    5.684750   4.682205   4.165497   4.968124   4.222805
    14  H    6.058065   5.127525   4.793101   5.505788   4.466160
    15  H    6.325809   5.352342   4.553304   5.688036   5.026552
    16  H    6.052205   4.988039   4.621051   5.038862   4.567232
                    6          7          8          9         10
     6  H    0.000000
     7  Si   2.431227   0.000000
     8  H    1.751203   2.425459   0.000000
     9  O    3.479666   1.648475   3.984728   0.000000
    10  O    3.721316   1.642579   2.980401   2.572487   0.000000
    11  H    2.998743   1.485517   3.039282   2.291240   2.563295
    12  H    3.836046   2.257394   4.389518   0.959046   2.894633
    13  C    5.016393   2.693482   4.323125   3.017170   1.408423
    14  H    5.747942   3.586776   4.803982   4.037600   2.035757
    15  H    5.279056   2.964183   4.603011   3.308947   2.077348
    16  H    5.394604   3.019137   4.998138   2.730543   2.075705
                   11         12         13         14         15
    11  H    0.000000
    12  H    3.199586   0.000000
    13  C    3.159210   3.329223   0.000000
    14  H    4.119255   4.230408   1.091418   0.000000
    15  H    2.877355   3.855355   1.096704   1.775410   0.000000
    16  H    3.578733   2.839190   1.094116   1.775752   1.776168
                   16
    16  H    0.000000
 Stoichiometry    C3H10O2Si
 Framework group  C1[X(C3H10O2Si)]
 Deg. of freedom    42
 Full point group                 C1      NOp   1
 Largest Abelian subgroup         C1      NOp   1
 Largest concise Abelian subgroup C1      NOp   1
                         Standard orientation:                         
 ---------------------------------------------------------------------
 Center     Atomic      Atomic             Coordinates (Angstroms)
 Number     Number       Type             X           Y           Z
 ---------------------------------------------------------------------
      1          1           0       -3.381981   -0.966725   -0.503682
      2          6           0       -2.353387   -0.635266   -0.667325
      3          6           0       -1.726231   -0.094259    0.616837
      4          1           0       -2.386778    0.125954   -1.452655
      5          1           0       -1.789084   -1.486693   -1.055712
      6          1           0       -2.307207    0.752718    0.998281
      7         14           0        0.040372    0.461625    0.437029
      8          1           0       -1.751584   -0.858445    1.400958
      9          8           0        0.693347    1.622784   -0.533951
     10          8           0        0.890539   -0.881153    0.022023
     11          1           0        0.597334    1.049599    1.682357
     12          1           0        0.510558    1.567727   -1.473806
     13          6           0        2.290285   -0.905393   -0.132176
     14          1           0        2.596228   -1.932840   -0.336985
     15          1           0        2.799687   -0.566180    0.777881
     16          1           0        2.612531   -0.271411   -0.963629
 ---------------------------------------------------------------------
 Rotational constants (GHZ):      4.1878192      1.8728023      1.5588946
 Standard basis: def2TZVP (5D, 7F)
 There are   252 symmetry adapted basis functions of A   symmetry.
 Integral buffers will be    131072 words long.
 Raffenetti 2 integral format.
 Two-electron integral symmetry is turned on.
   252 basis functions,   404 primitive gaussians,   282 cartesian basis functions
    29 alpha electrons       29 beta electrons
       nuclear repulsion energy       329.7757333473 Hartrees.
 NAtoms=   16 NActive=   16 NUniq=   16 SFac= 1.00D+00 NAtFMM=   60 NAOKFM=F Big=F
 One-electron integrals computed using PRISM.
   1 Symmetry operations used in ECPInt.
 ECPInt:  NShTT=    5886 NPrTT=   17754 LenC2=    5776 LenP2D=   13902.
 LDataN:  DoStor=T MaxTD1= 6 Len=  172
 NBasis=   252 RedAO= T  NBF=   252
 NBsUse=   252 1.00D-06 NBFU=   252
 Harris functional with IExCor= 1009 diagonalized for initial guess.
 ExpMin= 7.01D-02 ExpMax= 4.48D+04 ExpMxC= 1.53D+03 IAcc=2 IRadAn=         4 AccDes= 0.00D+00
 HarFok:  IExCor= 1009 AccDes= 0.00D+00 IRadAn=         4 IDoV= 1
 ScaDFX=  1.000000  1.000000  1.000000  1.000000
 FoFCou: FMM=F IPFlag=           0 FMFlag=      100000 FMFlg1=           0
         NFxFlg=           0 DoJE=T BraDBF=F KetDBF=T FulRan=T
         Omega=  0.000000  0.000000  1.000000  0.000000  0.000000 ICntrl=     500 IOpCl=  0
         NMat0=    1 NMatS0=    1 NMatT0=    0 NMatD0=    1 NMtDS0=    0 NMtDT0=    0
         I1Cent=           4 NGrid=           0.
 Petite list used in FoFCou.
 Initial guess orbital symmetries:
       Occupied  (A) (A) (A) (A) (A) (A) (A) (A) (A) (A) (A) (A)
                 (A) (A) (A) (A) (A) (A) (A) (A) (A) (A) (A) (A)
                 (A) (A) (A) (A) (A)
       Virtual   (A) (A) (A) (A) (A) (A) (A) (A) (A) (A) (A) (A)
                 (A) (A) (A) (A) (A) (A) (A) (A) (A) (A) (A) (A)
                 (A) (A) (A) (A) (A) (A) (A) (A) (A) (A) (A) (A)
                 (A) (A) (A) (A) (A) (A) (A) (A) (A) (A) (A) (A)
                 (A) (A) (A) (A) (A) (A) (A) (A) (A) (A) (A) (A)
                 (A) (A) (A) (A) (A) (A) (A) (A) (A) (A) (A) (A)
                 (A) (A) (A) (A) (A) (A) (A) (A) (A) (A) (A) (A)
                 (A) (A) (A) (A) (A) (A) (A) (A) (A) (A) (A) (A)
                 (A) (A) (A) (A) (A) (A) (A) (A) (A) (A) (A) (A)
                 (A) (A) (A) (A) (A) (A) (A) (A) (A) (A) (A) (A)
                 (A) (A) (A) (A) (A) (A) (A) (A) (A) (A) (A) (A)
                 (A) (A) (A) (A) (A) (A) (A) (A) (A) (A) (A) (A)
                 (A) (A) (A) (A) (A) (A) (A) (A) (A) (A) (A) (A)
                 (A) (A) (A) (A) (A) (A) (A) (A) (A) (A) (A) (A)
                 (A) (A) (A) (A) (A) (A) (A) (A) (A) (A) (A) (A)
                 (A) (A) (A) (A) (A) (A) (A) (A) (A) (A) (A) (A)
                 (A) (A) (A) (A) (A) (A) (A) (A) (A) (A) (A) (A)
                 (A) (A) (A) (A) (A) (A) (A) (A) (A) (A) (A) (A)
                 (A) (A) (A) (A) (A) (A) (A)
 The electronic state of the initial guess is 1-A.
 Requested convergence on RMS density matrix=1.00D-08 within 128 cycles.
 Requested convergence on MAX density matrix=1.00D-06.
 Requested convergence on             energy=1.00D-06.
 No special actions if energy rises.
 Integral accuracy reduced to 1.0D-05 until final iterations.
 Initial convergence to 1.0D-05 achieved.  Increase integral accuracy.
 SCF Done:  E(RPBE1PBE) =  -560.050588744     A.U. after   12 cycles
             Convg  =    0.7801D-08             -V/T =  2.0032

 **********************************************************************

            Population analysis using the SCF density.

 **********************************************************************

 Orbital symmetries:
       Occupied  (A) (A) (A) (A) (A) (A) (A) (A) (A) (A) (A) (A)
                 (A) (A) (A) (A) (A) (A) (A) (A) (A) (A) (A) (A)
                 (A) (A) (A) (A) (A)
       Virtual   (A) (A) (A) (A) (A) (A) (A) (A) (A) (A) (A) (A)
                 (A) (A) (A) (A) (A) (A) (A) (A) (A) (A) (A) (A)
                 (A) (A) (A) (A) (A) (A) (A) (A) (A) (A) (A) (A)
                 (A) (A) (A) (A) (A) (A) (A) (A) (A) (A) (A) (A)
                 (A) (A) (A) (A) (A) (A) (A) (A) (A) (A) (A) (A)
                 (A) (A) (A) (A) (A) (A) (A) (A) (A) (A) (A) (A)
                 (A) (A) (A) (A) (A) (A) (A) (A) (A) (A) (A) (A)
                 (A) (A) (A) (A) (A) (A) (A) (A) (A) (A) (A) (A)
                 (A) (A) (A) (A) (A) (A) (A) (A) (A) (A) (A) (A)
                 (A) (A) (A) (A) (A) (A) (A) (A) (A) (A) (A) (A)
                 (A) (A) (A) (A) (A) (A) (A) (A) (A) (A) (A) (A)
                 (A) (A) (A) (A) (A) (A) (A) (A) (A) (A) (A) (A)
                 (A) (A) (A) (A) (A) (A) (A) (A) (A) (A) (A) (A)
                 (A) (A) (A) (A) (A) (A) (A) (A) (A) (A) (A) (A)
                 (A) (A) (A) (A) (A) (A) (A) (A) (A) (A) (A) (A)
                 (A) (A) (A) (A) (A) (A) (A) (A) (A) (A) (A) (A)
                 (A) (A) (A) (A) (A) (A) (A) (A) (A) (A) (A) (A)
                 (A) (A) (A) (A) (A) (A) (A) (A) (A) (A) (A) (A)
                 (A) (A) (A) (A) (A) (A) (A)
 The electronic state is 1-A.
 Alpha  occ. eigenvalues --  -66.25319 -19.20212 -19.19086 -10.25802 -10.22096
 Alpha  occ. eigenvalues --  -10.21998  -5.32990  -3.66567  -3.66384  -3.66225
 Alpha  occ. eigenvalues --   -1.04214  -1.01649  -0.78871  -0.69930  -0.64580
 Alpha  occ. eigenvalues --   -0.56725  -0.50591  -0.46635  -0.46385  -0.46032
 Alpha  occ. eigenvalues --   -0.43553  -0.40859  -0.39426  -0.37028  -0.36825
 Alpha  occ. eigenvalues --   -0.35456  -0.31520  -0.30329  -0.29097
 Alpha virt. eigenvalues --    0.01425   0.05381   0.05912   0.08000   0.08935
 Alpha virt. eigenvalues --    0.09840   0.10194   0.11964   0.12727   0.13372
 Alpha virt. eigenvalues --    0.13977   0.15225   0.15740   0.16112   0.19014
 Alpha virt. eigenvalues --    0.21356   0.21921   0.23703   0.24446   0.24666
 Alpha virt. eigenvalues --    0.26472   0.27796   0.29402   0.30678   0.31157
 Alpha virt. eigenvalues --    0.34672   0.37425   0.39644   0.40614   0.41024
 Alpha virt. eigenvalues --    0.41695   0.42739   0.43854   0.45008   0.45830
 Alpha virt. eigenvalues --    0.47455   0.47507   0.48377   0.49000   0.50723
 Alpha virt. eigenvalues --    0.51187   0.54128   0.55945   0.56895   0.57558
 Alpha virt. eigenvalues --    0.60634   0.62684   0.64034   0.66988   0.69625
 Alpha virt. eigenvalues --    0.72151   0.73864   0.77357   0.78879   0.81078
 Alpha virt. eigenvalues --    0.82430   0.85169   0.86110   0.89583   0.91775
 Alpha virt. eigenvalues --    0.93514   0.96010   0.96609   0.99618   1.00969
 Alpha virt. eigenvalues --    1.04474   1.06933   1.07841   1.08830   1.11021
 Alpha virt. eigenvalues --    1.12197   1.12432   1.14378   1.16668   1.22750
 Alpha virt. eigenvalues --    1.27855   1.29363   1.31195   1.37761   1.38107
 Alpha virt. eigenvalues --    1.41828   1.45304   1.47442   1.50814   1.52224
 Alpha virt. eigenvalues --    1.53475   1.54292   1.55350   1.56886   1.57091
 Alpha virt. eigenvalues --    1.59957   1.61210   1.61718   1.64403   1.65793
 Alpha virt. eigenvalues --    1.67373   1.72023   1.74988   1.75996   1.79310
 Alpha virt. eigenvalues --    1.82018   1.82921   1.88875   1.90912   1.93339
 Alpha virt. eigenvalues --    1.94498   1.96001   1.98865   1.99406   2.03999
 Alpha virt. eigenvalues --    2.05647   2.09250   2.11180   2.12225   2.15678
 Alpha virt. eigenvalues --    2.16772   2.19393   2.27649   2.29562   2.30893
 Alpha virt. eigenvalues --    2.32741   2.33275   2.35098   2.35793   2.36492
 Alpha virt. eigenvalues --    2.38566   2.42116   2.45716   2.47124   2.48561
 Alpha virt. eigenvalues --    2.51998   2.52475   2.54213   2.56836   2.58259
 Alpha virt. eigenvalues --    2.60148   2.60991   2.65381   2.66466   2.72015
 Alpha virt. eigenvalues --    2.73418   2.78668   2.81015   2.83775   2.85516
 Alpha virt. eigenvalues --    2.89783   2.93937   2.97572   2.99269   3.03976
 Alpha virt. eigenvalues --    3.05691   3.08997   3.11369   3.11686   3.15394
 Alpha virt. eigenvalues --    3.21422   3.21751   3.23301   3.27826   3.31569
 Alpha virt. eigenvalues --    3.31934   3.33741   3.37130   3.40332   3.44345
 Alpha virt. eigenvalues --    3.45584   3.47158   3.51120   3.53096   3.55159
 Alpha virt. eigenvalues --    3.58133   3.59404   3.64205   3.67512   3.77028
 Alpha virt. eigenvalues --    3.80142   3.88658   3.91503   3.95275   4.02030
 Alpha virt. eigenvalues --    4.19992   4.23443   4.26781   4.33908   4.37957
 Alpha virt. eigenvalues --    4.41649   4.46161   4.53405   4.56883   4.78084
 Alpha virt. eigenvalues --    5.15418   5.16539   5.18257   5.20159   5.29173
 Alpha virt. eigenvalues --    5.32159   5.39256   5.41894   5.45867   5.50296
 Alpha virt. eigenvalues --    5.80250   5.88184   6.04740   6.24262   6.37731
 Alpha virt. eigenvalues --    6.40558   6.53927   6.57188   6.62118   6.69729
 Alpha virt. eigenvalues --    6.72660   6.78249   6.81948   7.01898   7.08893
 Alpha virt. eigenvalues --    7.13103   7.21392  11.87865  22.37150  22.40592
 Alpha virt. eigenvalues --   22.45490  43.62775  43.94327
          Condensed to atoms (all electrons):
              1          2          3          4          5          6
     1  H    0.553641   0.408165  -0.033744  -0.026603  -0.024415  -0.006768
     2  C    0.408165   4.932265   0.316085   0.405054   0.413699  -0.031179
     3  C   -0.033744   0.316085   5.061196  -0.042424  -0.039669   0.386846
     4  H   -0.026603   0.405054  -0.042424   0.572216  -0.025927  -0.004462
     5  H   -0.024415   0.413699  -0.039669  -0.025927   0.527780   0.007619
     6  H   -0.006768  -0.031179   0.386846  -0.004462   0.007619   0.573284
     7  Si   0.006224  -0.023427   0.385786  -0.003142  -0.007817  -0.028626
     8  H   -0.006958  -0.026420   0.376155   0.007605  -0.004023  -0.024507
     9  O   -0.000115  -0.002440  -0.029627   0.001665  -0.000127   0.000112
    10  O    0.000001  -0.003962  -0.030521  -0.000107   0.007853   0.001375
    11  H   -0.000147   0.001994  -0.040191   0.000202   0.000407   0.001338
    12  H   -0.000054  -0.000005  -0.003164   0.000767   0.000064   0.000025
    13  C    0.000001   0.000018   0.000651   0.000073  -0.000034  -0.000106
    14  H   -0.000003   0.000240  -0.000221  -0.000004  -0.000172  -0.000001
    15  H    0.000000  -0.000028  -0.000024  -0.000005   0.000086   0.000012
    16  H    0.000001  -0.000263   0.000770   0.000014   0.000023   0.000013
              7          8          9         10         11         12
     1  H    0.006224  -0.006958  -0.000115   0.000001  -0.000147  -0.000054
     2  C   -0.023427  -0.026420  -0.002440  -0.003962   0.001994  -0.000005
     3  C    0.385786   0.376155  -0.029627  -0.030521  -0.040191  -0.003164
     4  H   -0.003142   0.007605   0.001665  -0.000107   0.000202   0.000767
     5  H   -0.007817  -0.004023  -0.000127   0.007853   0.000407   0.000064
     6  H   -0.028626  -0.024507   0.000112   0.001375   0.001338   0.000025
     7  Si  11.914562  -0.008645   0.481117   0.460086   0.389082  -0.029020
     8  H   -0.008645   0.553872   0.000859   0.000918   0.000071  -0.000042
     9  O    0.481117   0.000859   7.849534  -0.047313  -0.027225   0.292842
    10  O    0.460086   0.000918  -0.047313   7.849030  -0.026650  -0.000741
    11  H    0.389082   0.000071  -0.027225  -0.026650   0.760513   0.007194
    12  H   -0.029020  -0.000042   0.292842  -0.000741   0.007194   0.421323
    13  C   -0.052743   0.000075  -0.014831   0.266643   0.003199   0.000970
    14  H    0.008117  -0.000010   0.000502  -0.039395  -0.000285   0.000013
    15  H   -0.016549  -0.000030  -0.000366  -0.043583   0.011029   0.000173
    16  H   -0.004819  -0.000007   0.011128  -0.046252  -0.001783   0.000428
             13         14         15         16
     1  H    0.000001  -0.000003   0.000000   0.000001
     2  C    0.000018   0.000240  -0.000028  -0.000263
     3  C    0.000651  -0.000221  -0.000024   0.000770
     4  H    0.000073  -0.000004  -0.000005   0.000014
     5  H   -0.000034  -0.000172   0.000086   0.000023
     6  H   -0.000106  -0.000001   0.000012   0.000013
     7  Si  -0.052743   0.008117  -0.016549  -0.004819
     8  H    0.000075  -0.000010  -0.000030  -0.000007
     9  O   -0.014831   0.000502  -0.000366   0.011128
    10  O    0.266643  -0.039395  -0.043583  -0.046252
    11  H    0.003199  -0.000285   0.011029  -0.001783
    12  H    0.000970   0.000013   0.000173   0.000428
    13  C    4.765028   0.400153   0.418021   0.408512
    14  H    0.400153   0.572662  -0.031894  -0.035314
    15  H    0.418021  -0.031894   0.592876  -0.045293
    16  H    0.408512  -0.035314  -0.045293   0.604509
 Mulliken atomic charges:
              1
     1  H    0.130774
     2  C   -0.389796
     3  C   -0.307902
     4  H    0.115078
     5  H    0.144652
     6  H    0.125026
     7  Si   0.529812
     8  H    0.131086
     9  O   -0.515717
    10  O   -0.347382
    11  H   -0.078750
    12  H    0.309228
    13  C   -0.195631
    14  H    0.125614
    15  H    0.115576
    16  H    0.108333
 Sum of Mulliken atomic charges =   0.00000
 Mulliken charges with hydrogens summed into heavy atoms:
              1
     2  C    0.000708
     3  C   -0.051790
     7  Si   0.451062
     9  O   -0.206489
    10  O   -0.347382
    13  C    0.153891
 Sum of Mulliken charges with hydrogens summed into heavy atoms =   0.00000
 Electronic spatial extent (au):  <R**2>=            872.1121
 Charge=              0.0000 electrons
 Dipole moment (field-independent basis, Debye):
    X=             -0.9972    Y=             -0.4308    Z=             -1.2131  Tot=              1.6284
 Quadrupole moment (field-independent basis, Debye-Ang):
   XX=            -41.8724   YY=            -48.7154   ZZ=            -42.7402
   XY=             -2.4335   XZ=             -1.3435   YZ=             -2.2908
 Traceless Quadrupole moment (field-independent basis, Debye-Ang):
   XX=              2.5703   YY=             -4.2727   ZZ=              1.7024
   XY=             -2.4335   XZ=             -1.3435   YZ=             -2.2908
 Octapole moment (field-independent basis, Debye-Ang**2):
  XXX=             11.1755  YYY=             -5.2302  ZZZ=            -11.9221  XYY=             -1.6560
  XXY=             -4.3425  XXZ=             -0.0307  XZZ=              2.9207  YZZ=              4.5348
  YYZ=             -4.0411  XYZ=              0.0165
 Hexadecapole moment (field-independent basis, Debye-Ang**3):
 XXXX=           -726.3789 YYYY=           -284.0772 ZZZZ=           -158.4924 XXXY=             -9.0090
 XXXZ=             -6.6306 YYYX=            -11.6980 YYYZ=             -7.9003 ZZZX=             -9.1816
 ZZZY=            -22.1203 XXYY=           -166.5439 XXZZ=           -151.2056 YYZZ=            -64.8998
 XXYZ=             -2.1344 YYXZ=             -4.7682 ZZXY=              1.7119
 N-N= 3.297757333473D+02 E-N=-1.983593940800D+03  KE= 5.582663492964D+02
 1\1\GINC-TARSUS4\SP\RPBE1PBE\def2TZVP\C3H10O2Si1\RENATO\08-Aug-2018\0\
 \#SP PBE1PBE/Def2TZVP geom=connectivity\\Structure: 119\\0,1\H,0,0.,0.
 ,0.\C,0,1.093,0.,0.\C,0,1.655,1.421,0.\H,0,1.41,-0.56,-0.885\H,0,1.424
 ,-0.557,0.88\H,0,1.308,1.969,-0.883\Si,0,3.513,1.515,0.035\H,0,1.282,1
 .975,0.868\O,0,4.625,0.928,-1.031\O,0,3.968,0.824,1.454\H,0,4.029,2.90
 6,-0.04\H,0,4.577,-0.004,-1.252\C,0,5.301,0.766,1.905\H,0,5.308,0.322,
 2.902\H,0,5.747,1.766,1.967\H,0,5.921,0.153,1.244\\Version=EM64L-G09Re
 vC.01\State=1-A\HF=-560.0505887\RMSD=7.801e-09\Dipole=-0.3491614,-0.53
 08955,-0.0816802\Quadrupole=0.8320645,-0.086982,-0.7450825,-2.1169,2.3
 035147,2.1045372\PG=C01 [X(C3H10O2Si1)]\\@


 PATIENCE IS THE ABILITY TO IDLE YOUR MOTOR WHEN
 YOU FEEL LIKE STRIPPING YOUR GEARS.
 Job cpu time:  0 days  0 hours 12 minutes 50.8 seconds.
 File lengths (MBytes):  RWF=     40 Int=      0 D2E=      0 Chk=      3 Scr=      1
 Normal termination of Gaussian 09 at Wed Aug  8 12:11:43 2018.
