 Entering Gaussian System, Link 0=g09
 Initial command:
 /usr/local/gaussian09/g09/l1.exe /scratch/renato/Gau-3171.inp -scrdir=/scratch/renato/
 Entering Link 1 = /usr/local/gaussian09/g09/l1.exe PID=      3173.
  
 Copyright (c) 1988,1990,1992,1993,1995,1998,2003,2009,2011,
            Gaussian, Inc.  All Rights Reserved.
  
 This is part of the Gaussian(R) 09 program.  It is based on
 the Gaussian(R) 03 system (copyright 2003, Gaussian, Inc.),
 the Gaussian(R) 98 system (copyright 1998, Gaussian, Inc.),
 the Gaussian(R) 94 system (copyright 1995, Gaussian, Inc.),
 the Gaussian 92(TM) system (copyright 1992, Gaussian, Inc.),
 the Gaussian 90(TM) system (copyright 1990, Gaussian, Inc.),
 the Gaussian 88(TM) system (copyright 1988, Gaussian, Inc.),
 the Gaussian 86(TM) system (copyright 1986, Carnegie Mellon
 University), and the Gaussian 82(TM) system (copyright 1983,
 Carnegie Mellon University). Gaussian is a federally registered
 trademark of Gaussian, Inc.
  
 This software contains proprietary and confidential information,
 including trade secrets, belonging to Gaussian, Inc.
  
 This software is provided under written license and may be
 used, copied, transmitted, or stored only in accord with that
 written license.
  
 The following legend is applicable only to US Government
 contracts under FAR:
  
                    RESTRICTED RIGHTS LEGEND
  
 Use, reproduction and disclosure by the US Government is
 subject to restrictions as set forth in subparagraphs (a)
 and (c) of the Commercial Computer Software - Restricted
 Rights clause in FAR 52.227-19.
  
 Gaussian, Inc.
 340 Quinnipiac St., Bldg. 40, Wallingford CT 06492
  
  
 ---------------------------------------------------------------
 Warning -- This program may not be used in any manner that
 competes with the business of Gaussian, Inc. or will provide
 assistance to any competitor of Gaussian, Inc.  The licensee
 of this program is prohibited from giving any competitor of
 Gaussian, Inc. access to this program.  By using this program,
 the user acknowledges that Gaussian, Inc. is engaged in the
 business of creating and licensing software in the field of
 computational chemistry and represents and warrants to the
 licensee that it is not a competitor of Gaussian, Inc. and that
 it will not use this program in any manner prohibited above.
 ---------------------------------------------------------------
  

 Cite this work as:
 Gaussian 09, Revision C.01,
 M. J. Frisch, G. W. Trucks, H. B. Schlegel, G. E. Scuseria, 
 M. A. Robb, J. R. Cheeseman, G. Scalmani, V. Barone, B. Mennucci, 
 G. A. Petersson, H. Nakatsuji, M. Caricato, X. Li, H. P. Hratchian, 
 A. F. Izmaylov, J. Bloino, G. Zheng, J. L. Sonnenberg, M. Hada, 
 M. Ehara, K. Toyota, R. Fukuda, J. Hasegawa, M. Ishida, T. Nakajima, 
 Y. Honda, O. Kitao, H. Nakai, T. Vreven, J. A. Montgomery, Jr., 
 J. E. Peralta, F. Ogliaro, M. Bearpark, J. J. Heyd, E. Brothers, 
 K. N. Kudin, V. N. Staroverov, T. Keith, R. Kobayashi, J. Normand, 
 K. Raghavachari, A. Rendell, J. C. Burant, S. S. Iyengar, J. Tomasi, 
 M. Cossi, N. Rega, J. M. Millam, M. Klene, J. E. Knox, J. B. Cross, 
 V. Bakken, C. Adamo, J. Jaramillo, R. Gomperts, R. E. Stratmann, 
 O. Yazyev, A. J. Austin, R. Cammi, C. Pomelli, J. W. Ochterski, 
 R. L. Martin, K. Morokuma, V. G. Zakrzewski, G. A. Voth, 
 P. Salvador, J. J. Dannenberg, S. Dapprich, A. D. Daniels, 
 O. Farkas, J. B. Foresman, J. V. Ortiz, J. Cioslowski, 
 and D. J. Fox, Gaussian, Inc., Wallingford CT, 2010.
 
 ******************************************
 Gaussian 09:  EM64L-G09RevC.01 23-Sep-2011
                 8-Aug-2018 
 ******************************************
 %nproc=2
 Will use up to    2 processors via shared memory.
 %mem=256MB
 %RWF=a13.rwf
 %chk=a13106
 %NoSave
 --------------------------------------
 #SP PBE1PBE/Def2TZVP geom=connectivity
 --------------------------------------
 1/38=1,57=2/1;
 2/12=2,17=6,18=5,40=1/2;
 3/5=44,7=101,11=2,16=1,25=1,30=1,74=-13/1,2,3;
 4//1;
 5/5=2,38=5/2;
 6/7=2,8=2,9=2,10=2,28=1/1;
 99/5=1,9=1/99;
 --------------
 Structure: 106
 --------------
 Charge =  0 Multiplicity = 1
 Symbolic Z-Matrix:
 H                     0.        0.        0. 
 C                     1.093     0.        0. 
 C                     1.655     1.421     0. 
 H                     1.41     -0.56     -0.885 
 H                     1.424    -0.557     0.88 
 H                     1.308     1.969    -0.883 
 Si                    3.513     1.515     0.035 
 H                     1.282     1.975     0.868 
 O                     4.529     0.884    -1.099 
 O                     3.968     0.824     1.454 
 H                     4.029     2.906    -0.04 
 H                     4.432    -0.045    -1.312 
 C                     5.301     0.766     1.905 
 H                     5.308     0.322     2.902 
 H                     5.747     1.766     1.967 
 H                     5.921     0.153     1.244 
 
                          Input orientation:                          
 ---------------------------------------------------------------------
 Center     Atomic      Atomic             Coordinates (Angstroms)
 Number     Number       Type             X           Y           Z
 ---------------------------------------------------------------------
      1          1           0        0.000000    0.000000    0.000000
      2          6           0        1.093000    0.000000    0.000000
      3          6           0        1.655000    1.421000    0.000000
      4          1           0        1.410000   -0.560000   -0.885000
      5          1           0        1.424000   -0.557000    0.880000
      6          1           0        1.308000    1.969000   -0.883000
      7         14           0        3.513000    1.515000    0.035000
      8          1           0        1.282000    1.975000    0.868000
      9          8           0        4.529000    0.884000   -1.099000
     10          8           0        3.968000    0.824000    1.454000
     11          1           0        4.029000    2.906000   -0.040000
     12          1           0        4.432000   -0.045000   -1.312000
     13          6           0        5.301000    0.766000    1.905000
     14          1           0        5.308000    0.322000    2.902000
     15          1           0        5.747000    1.766000    1.967000
     16          1           0        5.921000    0.153000    1.244000
 ---------------------------------------------------------------------
                    Distance matrix (angstroms):
                    1          2          3          4          5
     1  H    0.000000
     2  C    1.093000   0.000000
     3  C    2.181345   1.528098   0.000000
     4  H    1.756395   1.094218   2.183486   0.000000
     5  H    1.764207   1.092799   2.177210   1.765058   0.000000
     6  H    2.523393   2.168611   1.095629   2.531057   3.082580
     7  Si   3.825914   2.855320   1.860706   3.094291   3.061230
     8  H    2.509497   2.165588   1.095203   3.084740   2.536007
     9  O    4.743532   3.714210   3.123467   3.443703   3.953979
    10  O    4.305591   3.325465   2.796515   3.732257   2.951029
    11  H    4.967824   4.131166   2.800482   4.425646   4.429988
    12  H    4.622336   3.587797   3.403267   3.095164   3.757003
    13  C    5.684750   4.682205   4.165497   4.968124   4.222805
    14  H    6.058065   5.127525   4.793101   5.505788   4.466160
    15  H    6.325809   5.352342   4.553304   5.688036   5.026552
    16  H    6.052205   4.988039   4.621051   5.038862   4.567232
                    6          7          8          9         10
     6  H    0.000000
     7  Si   2.431227   0.000000
     8  H    1.751203   2.425459   0.000000
     9  O    3.405690   1.648142   3.949985   0.000000
    10  O    3.721316   1.642579   2.980401   2.614599   0.000000
    11  H    2.998743   1.485517   3.039282   2.336657   2.563295
    12  H    3.741606   2.256672   4.330739   0.958029   2.936190
    13  C    5.016393   2.693482   4.323125   3.103856   1.408423
    14  H    5.747942   3.586776   4.803982   4.114691   2.035757
    15  H    5.279056   2.964183   4.603011   3.414938   2.077348
    16  H    5.394604   3.019137   4.998138   2.821644   2.075705
                   11         12         13         14         15
    11  H    0.000000
    12  H    3.238641   0.000000
    13  C    3.159210   3.429573   0.000000
    14  H    4.119255   4.319706   1.091418   0.000000
    15  H    2.877355   3.969986   1.096704   1.775410   0.000000
    16  H    3.578733   2.964703   1.094116   1.775752   1.776168
                   16
    16  H    0.000000
 Stoichiometry    C3H10O2Si
 Framework group  C1[X(C3H10O2Si)]
 Deg. of freedom    42
 Full point group                 C1      NOp   1
 Largest Abelian subgroup         C1      NOp   1
 Largest concise Abelian subgroup C1      NOp   1
                         Standard orientation:                         
 ---------------------------------------------------------------------
 Center     Atomic      Atomic             Coordinates (Angstroms)
 Number     Number       Type             X           Y           Z
 ---------------------------------------------------------------------
      1          1           0       -3.347419   -1.017128   -0.509167
      2          6           0       -2.325690   -0.662933   -0.668117
      3          6           0       -1.702703   -0.144435    0.627311
      4          1           0       -2.376246    0.117840   -1.433069
      5          1           0       -1.747878   -1.493552   -1.080931
      6          1           0       -2.297135    0.681616    1.033132
      7         14           0        0.052798    0.447857    0.455176
      8          1           0       -1.710833   -0.929204    1.391208
      9          8           0        0.564013    1.666409   -0.529793
     10          8           0        0.925151   -0.867992    0.001734
     11          1           0        0.604588    1.013043    1.713292
     12          1           0        0.335281    1.610160   -1.458414
     13          6           0        2.324411   -0.862843   -0.158571
     14          1           0        2.647887   -1.878873   -0.391469
     15          1           0        2.831643   -0.538383    0.758054
     16          1           0        2.631517   -0.201598   -0.974372
 ---------------------------------------------------------------------
 Rotational constants (GHZ):      4.1211459      1.8841535      1.5648073
 Standard basis: def2TZVP (5D, 7F)
 There are   252 symmetry adapted basis functions of A   symmetry.
 Integral buffers will be    131072 words long.
 Raffenetti 2 integral format.
 Two-electron integral symmetry is turned on.
   252 basis functions,   404 primitive gaussians,   282 cartesian basis functions
    29 alpha electrons       29 beta electrons
       nuclear repulsion energy       329.5966441061 Hartrees.
 NAtoms=   16 NActive=   16 NUniq=   16 SFac= 1.00D+00 NAtFMM=   60 NAOKFM=F Big=F
 One-electron integrals computed using PRISM.
   1 Symmetry operations used in ECPInt.
 ECPInt:  NShTT=    5886 NPrTT=   17754 LenC2=    5775 LenP2D=   13907.
 LDataN:  DoStor=T MaxTD1= 6 Len=  172
 NBasis=   252 RedAO= T  NBF=   252
 NBsUse=   252 1.00D-06 NBFU=   252
 Harris functional with IExCor= 1009 diagonalized for initial guess.
 ExpMin= 7.01D-02 ExpMax= 4.48D+04 ExpMxC= 1.53D+03 IAcc=2 IRadAn=         4 AccDes= 0.00D+00
 HarFok:  IExCor= 1009 AccDes= 0.00D+00 IRadAn=         4 IDoV= 1
 ScaDFX=  1.000000  1.000000  1.000000  1.000000
 FoFCou: FMM=F IPFlag=           0 FMFlag=      100000 FMFlg1=           0
         NFxFlg=           0 DoJE=T BraDBF=F KetDBF=T FulRan=T
         Omega=  0.000000  0.000000  1.000000  0.000000  0.000000 ICntrl=     500 IOpCl=  0
         NMat0=    1 NMatS0=    1 NMatT0=    0 NMatD0=    1 NMtDS0=    0 NMtDT0=    0
         I1Cent=           4 NGrid=           0.
 Petite list used in FoFCou.
 Initial guess orbital symmetries:
       Occupied  (A) (A) (A) (A) (A) (A) (A) (A) (A) (A) (A) (A)
                 (A) (A) (A) (A) (A) (A) (A) (A) (A) (A) (A) (A)
                 (A) (A) (A) (A) (A)
       Virtual   (A) (A) (A) (A) (A) (A) (A) (A) (A) (A) (A) (A)
                 (A) (A) (A) (A) (A) (A) (A) (A) (A) (A) (A) (A)
                 (A) (A) (A) (A) (A) (A) (A) (A) (A) (A) (A) (A)
                 (A) (A) (A) (A) (A) (A) (A) (A) (A) (A) (A) (A)
                 (A) (A) (A) (A) (A) (A) (A) (A) (A) (A) (A) (A)
                 (A) (A) (A) (A) (A) (A) (A) (A) (A) (A) (A) (A)
                 (A) (A) (A) (A) (A) (A) (A) (A) (A) (A) (A) (A)
                 (A) (A) (A) (A) (A) (A) (A) (A) (A) (A) (A) (A)
                 (A) (A) (A) (A) (A) (A) (A) (A) (A) (A) (A) (A)
                 (A) (A) (A) (A) (A) (A) (A) (A) (A) (A) (A) (A)
                 (A) (A) (A) (A) (A) (A) (A) (A) (A) (A) (A) (A)
                 (A) (A) (A) (A) (A) (A) (A) (A) (A) (A) (A) (A)
                 (A) (A) (A) (A) (A) (A) (A) (A) (A) (A) (A) (A)
                 (A) (A) (A) (A) (A) (A) (A) (A) (A) (A) (A) (A)
                 (A) (A) (A) (A) (A) (A) (A) (A) (A) (A) (A) (A)
                 (A) (A) (A) (A) (A) (A) (A) (A) (A) (A) (A) (A)
                 (A) (A) (A) (A) (A) (A) (A) (A) (A) (A) (A) (A)
                 (A) (A) (A) (A) (A) (A) (A) (A) (A) (A) (A) (A)
                 (A) (A) (A) (A) (A) (A) (A)
 The electronic state of the initial guess is 1-A.
 Requested convergence on RMS density matrix=1.00D-08 within 128 cycles.
 Requested convergence on MAX density matrix=1.00D-06.
 Requested convergence on             energy=1.00D-06.
 No special actions if energy rises.
 Integral accuracy reduced to 1.0D-05 until final iterations.
 Initial convergence to 1.0D-05 achieved.  Increase integral accuracy.
 SCF Done:  E(RPBE1PBE) =  -560.055314354     A.U. after   12 cycles
             Convg  =    0.7842D-08             -V/T =  2.0032

 **********************************************************************

            Population analysis using the SCF density.

 **********************************************************************

 Orbital symmetries:
       Occupied  (A) (A) (A) (A) (A) (A) (A) (A) (A) (A) (A) (A)
                 (A) (A) (A) (A) (A) (A) (A) (A) (A) (A) (A) (A)
                 (A) (A) (A) (A) (A)
       Virtual   (A) (A) (A) (A) (A) (A) (A) (A) (A) (A) (A) (A)
                 (A) (A) (A) (A) (A) (A) (A) (A) (A) (A) (A) (A)
                 (A) (A) (A) (A) (A) (A) (A) (A) (A) (A) (A) (A)
                 (A) (A) (A) (A) (A) (A) (A) (A) (A) (A) (A) (A)
                 (A) (A) (A) (A) (A) (A) (A) (A) (A) (A) (A) (A)
                 (A) (A) (A) (A) (A) (A) (A) (A) (A) (A) (A) (A)
                 (A) (A) (A) (A) (A) (A) (A) (A) (A) (A) (A) (A)
                 (A) (A) (A) (A) (A) (A) (A) (A) (A) (A) (A) (A)
                 (A) (A) (A) (A) (A) (A) (A) (A) (A) (A) (A) (A)
                 (A) (A) (A) (A) (A) (A) (A) (A) (A) (A) (A) (A)
                 (A) (A) (A) (A) (A) (A) (A) (A) (A) (A) (A) (A)
                 (A) (A) (A) (A) (A) (A) (A) (A) (A) (A) (A) (A)
                 (A) (A) (A) (A) (A) (A) (A) (A) (A) (A) (A) (A)
                 (A) (A) (A) (A) (A) (A) (A) (A) (A) (A) (A) (A)
                 (A) (A) (A) (A) (A) (A) (A) (A) (A) (A) (A) (A)
                 (A) (A) (A) (A) (A) (A) (A) (A) (A) (A) (A) (A)
                 (A) (A) (A) (A) (A) (A) (A) (A) (A) (A) (A) (A)
                 (A) (A) (A) (A) (A) (A) (A) (A) (A) (A) (A) (A)
                 (A) (A) (A) (A) (A) (A) (A)
 The electronic state is 1-A.
 Alpha  occ. eigenvalues --  -66.25305 -19.20273 -19.19320 -10.25967 -10.22003
 Alpha  occ. eigenvalues --  -10.21730  -5.32975  -3.66535  -3.66375  -3.66224
 Alpha  occ. eigenvalues --   -1.04255  -1.01884  -0.78711  -0.70075  -0.64453
 Alpha  occ. eigenvalues --   -0.56754  -0.50741  -0.46547  -0.46448  -0.46125
 Alpha  occ. eigenvalues --   -0.43566  -0.40857  -0.39373  -0.37078  -0.36760
 Alpha  occ. eigenvalues --   -0.35620  -0.31554  -0.30466  -0.29298
 Alpha virt. eigenvalues --    0.01764   0.05519   0.05990   0.07978   0.08939
 Alpha virt. eigenvalues --    0.10078   0.10256   0.11923   0.12648   0.13570
 Alpha virt. eigenvalues --    0.14196   0.15025   0.15612   0.16118   0.19080
 Alpha virt. eigenvalues --    0.21413   0.21807   0.23765   0.24287   0.24728
 Alpha virt. eigenvalues --    0.26564   0.27845   0.29495   0.30502   0.31018
 Alpha virt. eigenvalues --    0.34309   0.37203   0.39807   0.40493   0.40759
 Alpha virt. eigenvalues --    0.41830   0.42560   0.44149   0.45078   0.45673
 Alpha virt. eigenvalues --    0.47200   0.47485   0.48095   0.49379   0.50693
 Alpha virt. eigenvalues --    0.51213   0.53899   0.56078   0.56354   0.58061
 Alpha virt. eigenvalues --    0.60850   0.62566   0.64265   0.66614   0.69442
 Alpha virt. eigenvalues --    0.72693   0.74288   0.76997   0.78226   0.81065
 Alpha virt. eigenvalues --    0.82409   0.84960   0.86093   0.89236   0.91911
 Alpha virt. eigenvalues --    0.93360   0.95919   0.96508   0.99467   1.01214
 Alpha virt. eigenvalues --    1.04347   1.06959   1.08163   1.08906   1.11048
 Alpha virt. eigenvalues --    1.12079   1.12356   1.14760   1.17280   1.22315
 Alpha virt. eigenvalues --    1.27313   1.29185   1.31139   1.37433   1.39584
 Alpha virt. eigenvalues --    1.41813   1.45589   1.47454   1.50678   1.52254
 Alpha virt. eigenvalues --    1.53498   1.54199   1.55222   1.56574   1.57147
 Alpha virt. eigenvalues --    1.60223   1.61568   1.61922   1.64125   1.65930
 Alpha virt. eigenvalues --    1.67076   1.72600   1.75012   1.75644   1.79699
 Alpha virt. eigenvalues --    1.81754   1.83178   1.88626   1.90027   1.92767
 Alpha virt. eigenvalues --    1.94586   1.95888   1.99211   1.99545   2.04275
 Alpha virt. eigenvalues --    2.05274   2.09282   2.10626   2.12146   2.15501
 Alpha virt. eigenvalues --    2.16528   2.18832   2.27432   2.29699   2.30212
 Alpha virt. eigenvalues --    2.32760   2.33195   2.35048   2.35768   2.36062
 Alpha virt. eigenvalues --    2.38085   2.41572   2.45762   2.46688   2.48476
 Alpha virt. eigenvalues --    2.51445   2.52297   2.54326   2.56560   2.58394
 Alpha virt. eigenvalues --    2.59931   2.61015   2.65269   2.66365   2.71868
 Alpha virt. eigenvalues --    2.73125   2.78060   2.81028   2.84197   2.84747
 Alpha virt. eigenvalues --    2.89312   2.93466   2.96563   2.99457   3.03540
 Alpha virt. eigenvalues --    3.06442   3.08991   3.10969   3.11271   3.15296
 Alpha virt. eigenvalues --    3.21095   3.21852   3.23150   3.27664   3.31111
 Alpha virt. eigenvalues --    3.32075   3.33536   3.36783   3.40250   3.44253
 Alpha virt. eigenvalues --    3.45492   3.46807   3.49520   3.53157   3.54858
 Alpha virt. eigenvalues --    3.58950   3.59207   3.63945   3.66356   3.76921
 Alpha virt. eigenvalues --    3.80403   3.88367   3.91841   3.95486   4.02391
 Alpha virt. eigenvalues --    4.19852   4.23608   4.26257   4.33977   4.37695
 Alpha virt. eigenvalues --    4.41672   4.46360   4.53372   4.56953   4.78225
 Alpha virt. eigenvalues --    5.15461   5.16459   5.18138   5.19550   5.28997
 Alpha virt. eigenvalues --    5.31296   5.39031   5.41827   5.45730   5.50195
 Alpha virt. eigenvalues --    5.80163   5.87675   6.04439   6.24017   6.38997
 Alpha virt. eigenvalues --    6.40527   6.53548   6.57606   6.61525   6.69154
 Alpha virt. eigenvalues --    6.71130   6.78596   6.81881   7.00425   7.08005
 Alpha virt. eigenvalues --    7.13914   7.21308  11.89402  22.37158  22.40651
 Alpha virt. eigenvalues --   22.45319  43.61913  43.94251
          Condensed to atoms (all electrons):
              1          2          3          4          5          6
     1  H    0.553047   0.408575  -0.033914  -0.026495  -0.024484  -0.006780
     2  C    0.408575   4.933223   0.316751   0.404037   0.413546  -0.030698
     3  C   -0.033914   0.316751   5.053848  -0.043023  -0.039630   0.386960
     4  H   -0.026495   0.404037  -0.043023   0.574746  -0.026233  -0.004553
     5  H   -0.024484   0.413546  -0.039630  -0.026233   0.529322   0.007652
     6  H   -0.006780  -0.030698   0.386960  -0.004553   0.007652   0.574538
     7  Si   0.006622  -0.022727   0.394485  -0.003149  -0.008055  -0.028699
     8  H   -0.006996  -0.027008   0.374723   0.007872  -0.004040  -0.025028
     9  O   -0.000108  -0.002654  -0.032200   0.002276  -0.000175  -0.000064
    10  O    0.000002  -0.004245  -0.030994  -0.000006   0.007789   0.001351
    11  H   -0.000141   0.001913  -0.038530   0.000210   0.000408   0.001368
    12  H   -0.000060  -0.000006  -0.002804   0.001015   0.000060   0.000034
    13  C    0.000004  -0.000009   0.000975   0.000083  -0.000042  -0.000111
    14  H   -0.000003   0.000237  -0.000282  -0.000004  -0.000171  -0.000001
    15  H    0.000000  -0.000032  -0.000026  -0.000005   0.000085   0.000011
    16  H    0.000001  -0.000225   0.000797   0.000008   0.000019   0.000012
              7          8          9         10         11         12
     1  H    0.006622  -0.006996  -0.000108   0.000002  -0.000141  -0.000060
     2  C   -0.022727  -0.027008  -0.002654  -0.004245   0.001913  -0.000006
     3  C    0.394485   0.374723  -0.032200  -0.030994  -0.038530  -0.002804
     4  H   -0.003149   0.007872   0.002276  -0.000006   0.000210   0.001015
     5  H   -0.008055  -0.004040  -0.000175   0.007789   0.000408   0.000060
     6  H   -0.028699  -0.025028  -0.000064   0.001351   0.001368   0.000034
     7  Si  11.907443  -0.009047   0.479920   0.457833   0.389375  -0.028535
     8  H   -0.009047   0.559120   0.001009   0.001118   0.000299  -0.000039
     9  O    0.479920   0.001009   7.845443  -0.043506  -0.023855   0.294991
    10  O    0.457833   0.001118  -0.043506   7.846817  -0.026727  -0.000857
    11  H    0.389375   0.000299  -0.023855  -0.026727   0.752754   0.006244
    12  H   -0.028535  -0.000039   0.294991  -0.000857   0.006244   0.416516
    13  C   -0.052371   0.000078  -0.012620   0.265628   0.003072   0.001009
    14  H    0.007977  -0.000007   0.000332  -0.039908  -0.000272   0.000019
    15  H   -0.016651  -0.000028  -0.000429  -0.043422   0.010800   0.000083
    16  H   -0.004726  -0.000009   0.010099  -0.045467  -0.001860   0.000372
             13         14         15         16
     1  H    0.000004  -0.000003   0.000000   0.000001
     2  C   -0.000009   0.000237  -0.000032  -0.000225
     3  C    0.000975  -0.000282  -0.000026   0.000797
     4  H    0.000083  -0.000004  -0.000005   0.000008
     5  H   -0.000042  -0.000171   0.000085   0.000019
     6  H   -0.000111  -0.000001   0.000011   0.000012
     7  Si  -0.052371   0.007977  -0.016651  -0.004726
     8  H    0.000078  -0.000007  -0.000028  -0.000009
     9  O   -0.012620   0.000332  -0.000429   0.010099
    10  O    0.265628  -0.039908  -0.043422  -0.045467
    11  H    0.003072  -0.000272   0.010800  -0.001860
    12  H    0.001009   0.000019   0.000083   0.000372
    13  C    4.765560   0.401016   0.418039   0.409472
    14  H    0.401016   0.571034  -0.031605  -0.034915
    15  H    0.418039  -0.031605   0.593103  -0.045858
    16  H    0.409472  -0.034915  -0.045858   0.600394
 Mulliken atomic charges:
              1
     1  H    0.130728
     2  C   -0.390677
     3  C   -0.307135
     4  H    0.113222
     5  H    0.143948
     6  H    0.124007
     7  Si   0.530304
     8  H    0.127982
     9  O   -0.518458
    10  O   -0.345407
    11  H   -0.075061
    12  H    0.311958
    13  C   -0.199783
    14  H    0.126552
    15  H    0.115933
    16  H    0.111887
 Sum of Mulliken atomic charges =   0.00000
 Mulliken charges with hydrogens summed into heavy atoms:
              1
     2  C   -0.002779
     3  C   -0.055147
     7  Si   0.455243
     9  O   -0.206500
    10  O   -0.345407
    13  C    0.154590
 Sum of Mulliken charges with hydrogens summed into heavy atoms =   0.00000
 Electronic spatial extent (au):  <R**2>=            871.0569
 Charge=              0.0000 electrons
 Dipole moment (field-independent basis, Debye):
    X=             -0.8341    Y=             -0.4734    Z=             -1.1334  Tot=              1.4847
 Quadrupole moment (field-independent basis, Debye-Ang):
   XX=            -41.7389   YY=            -48.8167   ZZ=            -42.7556
   XY=             -2.2792   XZ=             -1.0675   YZ=             -2.2365
 Traceless Quadrupole moment (field-independent basis, Debye-Ang):
   XX=              2.6982   YY=             -4.3796   ZZ=              1.6815
   XY=             -2.2792   XZ=             -1.0675   YZ=             -2.2365
 Octapole moment (field-independent basis, Debye-Ang**2):
  XXX=             12.0748  YYY=             -5.4032  ZZZ=            -11.7190  XYY=             -1.5636
  XXY=             -3.9240  XXZ=             -0.1740  XZZ=              2.3166  YZZ=              4.8443
  YYZ=             -4.1156  XYZ=              0.4695
 Hexadecapole moment (field-independent basis, Debye-Ang**3):
 XXXX=           -719.4422 YYYY=           -287.0241 ZZZZ=           -161.3846 XXXY=             -9.7584
 XXXZ=             -6.4859 YYYX=            -11.8647 YYYZ=             -8.2546 ZZZX=             -7.5722
 ZZZY=            -21.7776 XXYY=           -165.5104 XXZZ=           -151.4337 YYZZ=            -64.7296
 XXYZ=             -1.4691 YYXZ=             -4.1193 ZZXY=              0.1230
 N-N= 3.295966441061D+02 E-N=-1.983219345952D+03  KE= 5.582582576914D+02
 1\1\GINC-TARSUS4\SP\RPBE1PBE\def2TZVP\C3H10O2Si1\RENATO\08-Aug-2018\0\
 \#SP PBE1PBE/Def2TZVP geom=connectivity\\Structure: 106\\0,1\H,0,0.,0.
 ,0.\C,0,1.093,0.,0.\C,0,1.655,1.421,0.\H,0,1.41,-0.56,-0.885\H,0,1.424
 ,-0.557,0.88\H,0,1.308,1.969,-0.883\Si,0,3.513,1.515,0.035\H,0,1.282,1
 .975,0.868\O,0,4.529,0.884,-1.099\O,0,3.968,0.824,1.454\H,0,4.029,2.90
 6,-0.04\H,0,4.432,-0.045,-1.312\C,0,5.301,0.766,1.905\H,0,5.308,0.322,
 2.902\H,0,5.747,1.766,1.967\H,0,5.921,0.153,1.244\\Version=EM64L-G09Re
 vC.01\State=1-A\HF=-560.0553144\RMSD=7.842e-09\Dipole=-0.3022597,-0.49
 87951,-0.0325063\Quadrupole=0.7833004,0.0774251,-0.8607256,-1.8858735,
 2.4071857,2.0808015\PG=C01 [X(C3H10O2Si1)]\\@


 A MAN IS NEVER SO BRILLIANT AS WHEN HE TAKES THE WORDS RIGHT OUT
 OF YOUR MOUTH. -- ARNOT SHEPPARD, JR.
 Job cpu time:  0 days  0 hours  9 minutes 41.1 seconds.
 File lengths (MBytes):  RWF=     40 Int=      0 D2E=      0 Chk=      3 Scr=      1
 Normal termination of Gaussian 09 at Wed Aug  8 10:43:19 2018.
