 Entering Gaussian System, Link 0=g09
 Initial command:
 /usr/local/gaussian09/g09/l1.exe /scratch/renato/Gau-6220.inp -scrdir=/scratch/renato/
 Entering Link 1 = /usr/local/gaussian09/g09/l1.exe PID=      6222.
  
 Copyright (c) 1988,1990,1992,1993,1995,1998,2003,2009,2011,
            Gaussian, Inc.  All Rights Reserved.
  
 This is part of the Gaussian(R) 09 program.  It is based on
 the Gaussian(R) 03 system (copyright 2003, Gaussian, Inc.),
 the Gaussian(R) 98 system (copyright 1998, Gaussian, Inc.),
 the Gaussian(R) 94 system (copyright 1995, Gaussian, Inc.),
 the Gaussian 92(TM) system (copyright 1992, Gaussian, Inc.),
 the Gaussian 90(TM) system (copyright 1990, Gaussian, Inc.),
 the Gaussian 88(TM) system (copyright 1988, Gaussian, Inc.),
 the Gaussian 86(TM) system (copyright 1986, Carnegie Mellon
 University), and the Gaussian 82(TM) system (copyright 1983,
 Carnegie Mellon University). Gaussian is a federally registered
 trademark of Gaussian, Inc.
  
 This software contains proprietary and confidential information,
 including trade secrets, belonging to Gaussian, Inc.
  
 This software is provided under written license and may be
 used, copied, transmitted, or stored only in accord with that
 written license.
  
 The following legend is applicable only to US Government
 contracts under FAR:
  
                    RESTRICTED RIGHTS LEGEND
  
 Use, reproduction and disclosure by the US Government is
 subject to restrictions as set forth in subparagraphs (a)
 and (c) of the Commercial Computer Software - Restricted
 Rights clause in FAR 52.227-19.
  
 Gaussian, Inc.
 340 Quinnipiac St., Bldg. 40, Wallingford CT 06492
  
  
 ---------------------------------------------------------------
 Warning -- This program may not be used in any manner that
 competes with the business of Gaussian, Inc. or will provide
 assistance to any competitor of Gaussian, Inc.  The licensee
 of this program is prohibited from giving any competitor of
 Gaussian, Inc. access to this program.  By using this program,
 the user acknowledges that Gaussian, Inc. is engaged in the
 business of creating and licensing software in the field of
 computational chemistry and represents and warrants to the
 licensee that it is not a competitor of Gaussian, Inc. and that
 it will not use this program in any manner prohibited above.
 ---------------------------------------------------------------
  

 Cite this work as:
 Gaussian 09, Revision C.01,
 M. J. Frisch, G. W. Trucks, H. B. Schlegel, G. E. Scuseria, 
 M. A. Robb, J. R. Cheeseman, G. Scalmani, V. Barone, B. Mennucci, 
 G. A. Petersson, H. Nakatsuji, M. Caricato, X. Li, H. P. Hratchian, 
 A. F. Izmaylov, J. Bloino, G. Zheng, J. L. Sonnenberg, M. Hada, 
 M. Ehara, K. Toyota, R. Fukuda, J. Hasegawa, M. Ishida, T. Nakajima, 
 Y. Honda, O. Kitao, H. Nakai, T. Vreven, J. A. Montgomery, Jr., 
 J. E. Peralta, F. Ogliaro, M. Bearpark, J. J. Heyd, E. Brothers, 
 K. N. Kudin, V. N. Staroverov, T. Keith, R. Kobayashi, J. Normand, 
 K. Raghavachari, A. Rendell, J. C. Burant, S. S. Iyengar, J. Tomasi, 
 M. Cossi, N. Rega, J. M. Millam, M. Klene, J. E. Knox, J. B. Cross, 
 V. Bakken, C. Adamo, J. Jaramillo, R. Gomperts, R. E. Stratmann, 
 O. Yazyev, A. J. Austin, R. Cammi, C. Pomelli, J. W. Ochterski, 
 R. L. Martin, K. Morokuma, V. G. Zakrzewski, G. A. Voth, 
 P. Salvador, J. J. Dannenberg, S. Dapprich, A. D. Daniels, 
 O. Farkas, J. B. Foresman, J. V. Ortiz, J. Cioslowski, 
 and D. J. Fox, Gaussian, Inc., Wallingford CT, 2010.
 
 ******************************************
 Gaussian 09:  EM64L-G09RevC.01 23-Sep-2011
                 8-Aug-2018 
 ******************************************
 %nproc=2
 Will use up to    2 processors via shared memory.
 %mem=256MB
 %RWF=a13.rwf
 %chk=a1328
 %NoSave
 --------------------------------------
 #SP PBE1PBE/Def2TZVP geom=connectivity
 --------------------------------------
 1/38=1,57=2/1;
 2/12=2,17=6,18=5,40=1/2;
 3/5=44,7=101,11=2,16=1,25=1,30=1,74=-13/1,2,3;
 4//1;
 5/5=2,38=5/2;
 6/7=2,8=2,9=2,10=2,28=1/1;
 99/5=1,9=1/99;
 -------------
 Structure: 28
 -------------
 Charge =  0 Multiplicity = 1
 Symbolic Z-Matrix:
 H                     0.        0.        0. 
 C                     1.093     0.        0. 
 C                     1.655     1.421     0. 
 H                     1.41     -0.56     -0.885 
 H                     1.424    -0.557     0.88 
 H                     1.308     1.969    -0.883 
 Si                    3.513     1.515     0.035 
 H                     1.282     1.975     0.868 
 O                     3.858     0.704    -1.358 
 O                     3.968     0.824     1.454 
 H                     4.029     2.906    -0.04 
 H                     3.485    -0.172    -1.464 
 C                     5.301     0.766     1.905 
 H                     5.308     0.322     2.902 
 H                     5.747     1.766     1.967 
 H                     5.921     0.153     1.244 
 
                          Input orientation:                          
 ---------------------------------------------------------------------
 Center     Atomic      Atomic             Coordinates (Angstroms)
 Number     Number       Type             X           Y           Z
 ---------------------------------------------------------------------
      1          1           0        0.000000    0.000000    0.000000
      2          6           0        1.093000    0.000000    0.000000
      3          6           0        1.655000    1.421000    0.000000
      4          1           0        1.410000   -0.560000   -0.885000
      5          1           0        1.424000   -0.557000    0.880000
      6          1           0        1.308000    1.969000   -0.883000
      7         14           0        3.513000    1.515000    0.035000
      8          1           0        1.282000    1.975000    0.868000
      9          8           0        3.858000    0.704000   -1.358000
     10          8           0        3.968000    0.824000    1.454000
     11          1           0        4.029000    2.906000   -0.040000
     12          1           0        3.485000   -0.172000   -1.464000
     13          6           0        5.301000    0.766000    1.905000
     14          1           0        5.308000    0.322000    2.902000
     15          1           0        5.747000    1.766000    1.967000
     16          1           0        5.921000    0.153000    1.244000
 ---------------------------------------------------------------------
                    Distance matrix (angstroms):
                    1          2          3          4          5
     1  H    0.000000
     2  C    1.093000   0.000000
     3  C    2.181345   1.528098   0.000000
     4  H    1.756395   1.094218   2.183486   0.000000
     5  H    1.764207   1.092799   2.177210   1.765058   0.000000
     6  H    2.523393   2.168611   1.095629   2.531057   3.082580
     7  Si   3.825914   2.855320   1.860706   3.094291   3.061230
     8  H    2.509497   2.165588   1.095203   3.084740   2.536007
     9  O    4.150174   3.159906   2.685417   2.795376   3.538802
    10  O    4.305591   3.325465   2.796515   3.732257   2.951029
    11  H    4.967824   4.131166   2.800482   4.425646   4.429988
    12  H    3.783927   2.809723   2.833698   2.188929   3.144882
    13  C    5.684750   4.682205   4.165497   4.968124   4.222805
    14  H    6.058065   5.127525   4.793101   5.505788   4.466160
    15  H    6.325809   5.352342   4.553304   5.688036   5.026552
    16  H    6.052205   4.988039   4.621051   5.038862   4.567232
                    6          7          8          9         10
     6  H    0.000000
     7  Si   2.431227   0.000000
     8  H    1.751203   2.425459   0.000000
     9  O    2.885888   1.648392   3.634046   0.000000
    10  O    3.721316   1.642579   2.980401   2.816708   0.000000
    11  H    2.998743   1.485517   3.039282   2.571997   2.563295
    12  H    3.108178   2.256935   3.860187   0.957988   3.120902
    13  C    5.016393   2.693482   4.323125   3.568370   1.408423
    14  H    5.747942   3.586776   4.803982   4.516196   2.035757
    15  H    5.279056   2.964183   4.603011   3.968852   2.077348
    16  H    5.394604   3.019137   4.998138   3.366003   2.075705
                   11         12         13         14         15
    11  H    0.000000
    12  H    3.434792   0.000000
    13  C    3.159210   3.940541   0.000000
    14  H    4.119255   4.757029   1.091418   0.000000
    15  H    2.877355   4.543594   1.096704   1.775410   0.000000
    16  H    3.578733   3.656909   1.094116   1.775752   1.776168
                   16
    16  H    0.000000
 Stoichiometry    C3H10O2Si
 Framework group  C1[X(C3H10O2Si)]
 Deg. of freedom    42
 Full point group                 C1      NOp   1
 Largest Abelian subgroup         C1      NOp   1
 Largest concise Abelian subgroup C1      NOp   1
                         Standard orientation:                         
 ---------------------------------------------------------------------
 Center     Atomic      Atomic             Coordinates (Angstroms)
 Number     Number       Type             X           Y           Z
 ---------------------------------------------------------------------
      1          1           0       -3.101380   -1.381557   -0.413374
      2          6           0       -2.137254   -0.899840   -0.595196
      3          6           0       -1.530182   -0.352391    0.695869
      4          1           0       -2.312606   -0.106097   -1.327683
      5          1           0       -1.480148   -1.639258   -1.059612
      6          1           0       -2.203500    0.380695    1.153723
      7         14           0        0.132366    0.455777    0.483682
      8          1           0       -1.412595   -1.157247    1.429250
      9          8           0       -0.273927    1.652142   -0.575011
     10          8           0        1.138727   -0.727536   -0.050243
     11          1           0        0.661673    1.042061    1.741802
     12          1           0       -0.720822    1.395443   -1.382558
     13          6           0        2.519508   -0.545777   -0.260154
     14          1           0        2.954018   -1.506237   -0.542840
     15          1           0        3.020072   -0.192357    0.649401
     16          1           0        2.711329    0.174886   -1.060741
 ---------------------------------------------------------------------
 Rotational constants (GHZ):      4.2049174      1.8850081      1.5978330
 Standard basis: def2TZVP (5D, 7F)
 There are   252 symmetry adapted basis functions of A   symmetry.
 Integral buffers will be    131072 words long.
 Raffenetti 2 integral format.
 Two-electron integral symmetry is turned on.
   252 basis functions,   404 primitive gaussians,   282 cartesian basis functions
    29 alpha electrons       29 beta electrons
       nuclear repulsion energy       330.6282282927 Hartrees.
 NAtoms=   16 NActive=   16 NUniq=   16 SFac= 1.00D+00 NAtFMM=   60 NAOKFM=F Big=F
 One-electron integrals computed using PRISM.
   1 Symmetry operations used in ECPInt.
 ECPInt:  NShTT=    5886 NPrTT=   17754 LenC2=    5778 LenP2D=   13932.
 LDataN:  DoStor=T MaxTD1= 6 Len=  172
 NBasis=   252 RedAO= T  NBF=   252
 NBsUse=   252 1.00D-06 NBFU=   252
 Harris functional with IExCor= 1009 diagonalized for initial guess.
 ExpMin= 7.01D-02 ExpMax= 4.48D+04 ExpMxC= 1.53D+03 IAcc=2 IRadAn=         4 AccDes= 0.00D+00
 HarFok:  IExCor= 1009 AccDes= 0.00D+00 IRadAn=         4 IDoV= 1
 ScaDFX=  1.000000  1.000000  1.000000  1.000000
 FoFCou: FMM=F IPFlag=           0 FMFlag=      100000 FMFlg1=           0
         NFxFlg=           0 DoJE=T BraDBF=F KetDBF=T FulRan=T
         Omega=  0.000000  0.000000  1.000000  0.000000  0.000000 ICntrl=     500 IOpCl=  0
         NMat0=    1 NMatS0=    1 NMatT0=    0 NMatD0=    1 NMtDS0=    0 NMtDT0=    0
         I1Cent=           4 NGrid=           0.
 Petite list used in FoFCou.
 Initial guess orbital symmetries:
       Occupied  (A) (A) (A) (A) (A) (A) (A) (A) (A) (A) (A) (A)
                 (A) (A) (A) (A) (A) (A) (A) (A) (A) (A) (A) (A)
                 (A) (A) (A) (A) (A)
       Virtual   (A) (A) (A) (A) (A) (A) (A) (A) (A) (A) (A) (A)
                 (A) (A) (A) (A) (A) (A) (A) (A) (A) (A) (A) (A)
                 (A) (A) (A) (A) (A) (A) (A) (A) (A) (A) (A) (A)
                 (A) (A) (A) (A) (A) (A) (A) (A) (A) (A) (A) (A)
                 (A) (A) (A) (A) (A) (A) (A) (A) (A) (A) (A) (A)
                 (A) (A) (A) (A) (A) (A) (A) (A) (A) (A) (A) (A)
                 (A) (A) (A) (A) (A) (A) (A) (A) (A) (A) (A) (A)
                 (A) (A) (A) (A) (A) (A) (A) (A) (A) (A) (A) (A)
                 (A) (A) (A) (A) (A) (A) (A) (A) (A) (A) (A) (A)
                 (A) (A) (A) (A) (A) (A) (A) (A) (A) (A) (A) (A)
                 (A) (A) (A) (A) (A) (A) (A) (A) (A) (A) (A) (A)
                 (A) (A) (A) (A) (A) (A) (A) (A) (A) (A) (A) (A)
                 (A) (A) (A) (A) (A) (A) (A) (A) (A) (A) (A) (A)
                 (A) (A) (A) (A) (A) (A) (A) (A) (A) (A) (A) (A)
                 (A) (A) (A) (A) (A) (A) (A) (A) (A) (A) (A) (A)
                 (A) (A) (A) (A) (A) (A) (A) (A) (A) (A) (A) (A)
                 (A) (A) (A) (A) (A) (A) (A) (A) (A) (A) (A) (A)
                 (A) (A) (A) (A) (A) (A) (A) (A) (A) (A) (A) (A)
                 (A) (A) (A) (A) (A) (A) (A)
 The electronic state of the initial guess is 1-A.
 Requested convergence on RMS density matrix=1.00D-08 within 128 cycles.
 Requested convergence on MAX density matrix=1.00D-06.
 Requested convergence on             energy=1.00D-06.
 No special actions if energy rises.
 Integral accuracy reduced to 1.0D-05 until final iterations.
 Initial convergence to 1.0D-05 achieved.  Increase integral accuracy.
 SCF Done:  E(RPBE1PBE) =  -560.054003587     A.U. after   12 cycles
             Convg  =    0.9161D-08             -V/T =  2.0032

 **********************************************************************

            Population analysis using the SCF density.

 **********************************************************************

 Orbital symmetries:
       Occupied  (A) (A) (A) (A) (A) (A) (A) (A) (A) (A) (A) (A)
                 (A) (A) (A) (A) (A) (A) (A) (A) (A) (A) (A) (A)
                 (A) (A) (A) (A) (A)
       Virtual   (A) (A) (A) (A) (A) (A) (A) (A) (A) (A) (A) (A)
                 (A) (A) (A) (A) (A) (A) (A) (A) (A) (A) (A) (A)
                 (A) (A) (A) (A) (A) (A) (A) (A) (A) (A) (A) (A)
                 (A) (A) (A) (A) (A) (A) (A) (A) (A) (A) (A) (A)
                 (A) (A) (A) (A) (A) (A) (A) (A) (A) (A) (A) (A)
                 (A) (A) (A) (A) (A) (A) (A) (A) (A) (A) (A) (A)
                 (A) (A) (A) (A) (A) (A) (A) (A) (A) (A) (A) (A)
                 (A) (A) (A) (A) (A) (A) (A) (A) (A) (A) (A) (A)
                 (A) (A) (A) (A) (A) (A) (A) (A) (A) (A) (A) (A)
                 (A) (A) (A) (A) (A) (A) (A) (A) (A) (A) (A) (A)
                 (A) (A) (A) (A) (A) (A) (A) (A) (A) (A) (A) (A)
                 (A) (A) (A) (A) (A) (A) (A) (A) (A) (A) (A) (A)
                 (A) (A) (A) (A) (A) (A) (A) (A) (A) (A) (A) (A)
                 (A) (A) (A) (A) (A) (A) (A) (A) (A) (A) (A) (A)
                 (A) (A) (A) (A) (A) (A) (A) (A) (A) (A) (A) (A)
                 (A) (A) (A) (A) (A) (A) (A) (A) (A) (A) (A) (A)
                 (A) (A) (A) (A) (A) (A) (A) (A) (A) (A) (A) (A)
                 (A) (A) (A) (A) (A) (A) (A) (A) (A) (A) (A) (A)
                 (A) (A) (A) (A) (A) (A) (A)
 The electronic state is 1-A.
 Alpha  occ. eigenvalues --  -66.25609 -19.20733 -19.19826 -10.26933 -10.21499
 Alpha  occ. eigenvalues --  -10.19852  -5.33260  -3.66777  -3.66701  -3.66511
 Alpha  occ. eigenvalues --   -1.04802  -1.02312  -0.77664  -0.70990  -0.63672
 Alpha  occ. eigenvalues --   -0.56504  -0.51608  -0.47307  -0.46986  -0.45776
 Alpha  occ. eigenvalues --   -0.43518  -0.41225  -0.38568  -0.37217  -0.36453
 Alpha  occ. eigenvalues --   -0.35231  -0.32405  -0.30731  -0.28880
 Alpha virt. eigenvalues --    0.02277   0.05103   0.05861   0.07991   0.09017
 Alpha virt. eigenvalues --    0.09623   0.11065   0.11547   0.11933   0.13138
 Alpha virt. eigenvalues --    0.13597   0.15125   0.16602   0.17942   0.19893
 Alpha virt. eigenvalues --    0.21548   0.22316   0.22873   0.25065   0.25455
 Alpha virt. eigenvalues --    0.26722   0.27538   0.28713   0.29810   0.31216
 Alpha virt. eigenvalues --    0.32988   0.35690   0.38521   0.40162   0.40900
 Alpha virt. eigenvalues --    0.41959   0.42716   0.43753   0.45395   0.45620
 Alpha virt. eigenvalues --    0.46287   0.47268   0.48022   0.48815   0.50292
 Alpha virt. eigenvalues --    0.51522   0.53980   0.55744   0.57841   0.59095
 Alpha virt. eigenvalues --    0.61212   0.64660   0.66307   0.66879   0.68144
 Alpha virt. eigenvalues --    0.72909   0.73375   0.75894   0.79030   0.79545
 Alpha virt. eigenvalues --    0.83087   0.84014   0.86370   0.89206   0.91526
 Alpha virt. eigenvalues --    0.93567   0.95381   0.97388   0.99573   0.99764
 Alpha virt. eigenvalues --    1.04211   1.05976   1.06769   1.09899   1.11760
 Alpha virt. eigenvalues --    1.13192   1.14110   1.17313   1.18166   1.20226
 Alpha virt. eigenvalues --    1.24248   1.31919   1.32402   1.37053   1.40073
 Alpha virt. eigenvalues --    1.42871   1.45865   1.47263   1.49463   1.51462
 Alpha virt. eigenvalues --    1.52423   1.54001   1.54915   1.57226   1.58473
 Alpha virt. eigenvalues --    1.60127   1.62440   1.64219   1.64623   1.66280
 Alpha virt. eigenvalues --    1.69350   1.72184   1.75507   1.77526   1.78525
 Alpha virt. eigenvalues --    1.81726   1.82876   1.86581   1.87275   1.93195
 Alpha virt. eigenvalues --    1.95209   1.96533   1.97517   2.01397   2.03661
 Alpha virt. eigenvalues --    2.05796   2.09252   2.11991   2.12733   2.14385
 Alpha virt. eigenvalues --    2.17804   2.21455   2.25666   2.27546   2.30702
 Alpha virt. eigenvalues --    2.32192   2.33318   2.34030   2.34907   2.36065
 Alpha virt. eigenvalues --    2.37301   2.40106   2.44259   2.47264   2.50399
 Alpha virt. eigenvalues --    2.50709   2.52838   2.54670   2.55870   2.58277
 Alpha virt. eigenvalues --    2.60015   2.61619   2.65888   2.69132   2.71950
 Alpha virt. eigenvalues --    2.73018   2.78608   2.80844   2.82580   2.84567
 Alpha virt. eigenvalues --    2.85171   2.93991   2.96035   2.97868   3.01922
 Alpha virt. eigenvalues --    3.05089   3.10097   3.10950   3.11885   3.15235
 Alpha virt. eigenvalues --    3.21683   3.22895   3.24572   3.28601   3.30217
 Alpha virt. eigenvalues --    3.32362   3.32804   3.37739   3.40854   3.44242
 Alpha virt. eigenvalues --    3.44861   3.46381   3.48309   3.52987   3.55635
 Alpha virt. eigenvalues --    3.57661   3.60881   3.64021   3.65702   3.77265
 Alpha virt. eigenvalues --    3.81817   3.89528   3.93690   3.96677   4.03354
 Alpha virt. eigenvalues --    4.18394   4.24180   4.24946   4.34695   4.36350
 Alpha virt. eigenvalues --    4.42199   4.47673   4.53659   4.57407   4.79606
 Alpha virt. eigenvalues --    5.16302   5.17243   5.17390   5.18833   5.27573
 Alpha virt. eigenvalues --    5.28864   5.38439   5.41720   5.45790   5.50979
 Alpha virt. eigenvalues --    5.79565   5.85687   6.02921   6.23570   6.42720
 Alpha virt. eigenvalues --    6.45372   6.55648   6.58419   6.60119   6.63730
 Alpha virt. eigenvalues --    6.67296   6.76886   6.82685   6.95885   7.06718
 Alpha virt. eigenvalues --    7.16421   7.26739  11.95052  22.37394  22.41129
 Alpha virt. eigenvalues --   22.46557  43.64470  43.94910
          Condensed to atoms (all electrons):
              1          2          3          4          5          6
     1  H    0.548779   0.407167  -0.032432  -0.023614  -0.024147  -0.006866
     2  C    0.407167   4.949898   0.308596   0.398420   0.411550  -0.027333
     3  C   -0.032432   0.308596   5.025300  -0.046809  -0.039788   0.387704
     4  H   -0.023614   0.398420  -0.046809   0.603476  -0.029531  -0.005485
     5  H   -0.024147   0.411550  -0.039788  -0.029531   0.536925   0.007804
     6  H   -0.006866  -0.027333   0.387704  -0.005485   0.007804   0.582480
     7  Si   0.008320  -0.019395   0.451175  -0.011094  -0.007952  -0.028912
     8  H   -0.006776  -0.027087   0.362232   0.010158  -0.004022  -0.027281
     9  O    0.000304  -0.005678  -0.046749   0.006300  -0.000588  -0.002673
    10  O    0.000024  -0.005188  -0.030679   0.000947   0.007374   0.001270
    11  H   -0.000083   0.001742  -0.033175   0.000192   0.000411   0.001299
    12  H   -0.000136   0.002435  -0.002879   0.003919  -0.000070   0.000172
    13  C    0.000012  -0.000183   0.002815   0.000084  -0.000083  -0.000147
    14  H   -0.000004   0.000204  -0.000489   0.000000  -0.000150   0.000000
    15  H    0.000001  -0.000047   0.000021   0.000003   0.000080  -0.000002
    16  H    0.000000  -0.000048   0.000727  -0.000038   0.000006   0.000018
              7          8          9         10         11         12
     1  H    0.008320  -0.006776   0.000304   0.000024  -0.000083  -0.000136
     2  C   -0.019395  -0.027087  -0.005678  -0.005188   0.001742   0.002435
     3  C    0.451175   0.362232  -0.046749  -0.030679  -0.033175  -0.002879
     4  H   -0.011094   0.010158   0.006300   0.000947   0.000192   0.003919
     5  H   -0.007952  -0.004022  -0.000588   0.007374   0.000411  -0.000070
     6  H   -0.028912  -0.027281  -0.002673   0.001270   0.001299   0.000172
     7  Si  11.892692  -0.024566   0.447122   0.441829   0.392427  -0.028549
     8  H   -0.024566   0.603745   0.004211   0.002698   0.001225  -0.000101
     9  O    0.447122   0.004211   7.858424  -0.029022  -0.010615   0.306103
    10  O    0.441829   0.002698  -0.029022   7.839770  -0.025153  -0.001332
    11  H    0.392427   0.001225  -0.010615  -0.025153   0.709330   0.002867
    12  H   -0.028549  -0.000101   0.306103  -0.001332   0.002867   0.397336
    13  C   -0.046593   0.000072  -0.003433   0.257503   0.001773   0.000244
    14  H    0.007484   0.000010   0.000009  -0.041496  -0.000205   0.000014
    15  H   -0.018890  -0.000013  -0.000430  -0.041670   0.009384  -0.000040
    16  H   -0.003982  -0.000032   0.004083  -0.043527  -0.001925   0.000321
             13         14         15         16
     1  H    0.000012  -0.000004   0.000001   0.000000
     2  C   -0.000183   0.000204  -0.000047  -0.000048
     3  C    0.002815  -0.000489   0.000021   0.000727
     4  H    0.000084   0.000000   0.000003  -0.000038
     5  H   -0.000083  -0.000150   0.000080   0.000006
     6  H   -0.000147   0.000000  -0.000002   0.000018
     7  Si  -0.046593   0.007484  -0.018890  -0.003982
     8  H    0.000072   0.000010  -0.000013  -0.000032
     9  O   -0.003433   0.000009  -0.000430   0.004083
    10  O    0.257503  -0.041496  -0.041670  -0.043527
    11  H    0.001773  -0.000205   0.009384  -0.001925
    12  H    0.000244   0.000014  -0.000040   0.000321
    13  C    4.773423   0.403609   0.417911   0.413267
    14  H    0.403609   0.561763  -0.029180  -0.032526
    15  H    0.417911  -0.029180   0.592481  -0.049011
    16  H    0.413267  -0.032526  -0.049011   0.588686
 Mulliken atomic charges:
              1
     1  H    0.129451
     2  C   -0.395051
     3  C   -0.305570
     4  H    0.093072
     5  H    0.142180
     6  H    0.117953
     7  Si   0.548886
     8  H    0.105526
     9  O   -0.527366
    10  O   -0.333347
    11  H   -0.049495
    12  H    0.319696
    13  C   -0.220276
    14  H    0.130958
    15  H    0.119403
    16  H    0.123981
 Sum of Mulliken atomic charges =   0.00000
 Mulliken charges with hydrogens summed into heavy atoms:
              1
     2  C   -0.030348
     3  C   -0.082092
     7  Si   0.499390
     9  O   -0.207670
    10  O   -0.333347
    13  C    0.154066
 Sum of Mulliken charges with hydrogens summed into heavy atoms =   0.00000
 Electronic spatial extent (au):  <R**2>=            861.0558
 Charge=              0.0000 electrons
 Dipole moment (field-independent basis, Debye):
    X=              0.3901    Y=             -0.5988    Z=             -0.6462  Tot=              0.9635
 Quadrupole moment (field-independent basis, Debye-Ang):
   XX=            -40.5235   YY=            -49.6948   ZZ=            -43.1575
   XY=             -0.6045   XZ=              0.5176   YZ=             -0.6831
 Traceless Quadrupole moment (field-independent basis, Debye-Ang):
   XX=              3.9351   YY=             -5.2362   ZZ=              1.3011
   XY=             -0.6045   XZ=              0.5176   YZ=             -0.6831
 Octapole moment (field-independent basis, Debye-Ang**2):
  XXX=             15.5100  YYY=             -7.1184  ZZZ=             -9.4156  XYY=              1.3034
  XXY=             -0.2176  XXZ=             -3.3659  XZZ=             -0.5191  YZZ=              3.9496
  YYZ=             -1.3383  XYZ=              2.2656
 Hexadecapole moment (field-independent basis, Debye-Ang**3):
 XXXX=           -702.0526 YYYY=           -284.0119 ZZZZ=           -166.8100 XXXY=            -15.9125
 XXXZ=             -5.0523 YYYX=             -9.7293 YYYZ=             -2.1011 ZZZX=              2.1659
 ZZZY=            -15.8545 XXYY=           -160.0122 XXZZ=           -149.8087 YYZZ=            -68.4351
 XXYZ=             -2.2668 YYXZ=             -0.5753 ZZXY=             -8.4827
 N-N= 3.306282282927D+02 E-N=-1.985229181759D+03  KE= 5.582547008940D+02
 1\1\GINC-TARSUS4\SP\RPBE1PBE\def2TZVP\C3H10O2Si1\RENATO\08-Aug-2018\0\
 \#SP PBE1PBE/Def2TZVP geom=connectivity\\Structure: 28\\0,1\H,0,0.,0.,
 0.\C,0,1.093,0.,0.\C,0,1.655,1.421,0.\H,0,1.41,-0.56,-0.885\H,0,1.424,
 -0.557,0.88\H,0,1.308,1.969,-0.883\Si,0,3.513,1.515,0.035\H,0,1.282,1.
 975,0.868\O,0,3.858,0.704,-1.358\O,0,3.968,0.824,1.454\H,0,4.029,2.906
 ,-0.04\H,0,3.485,-0.172,-1.464\C,0,5.301,0.766,1.905\H,0,5.308,0.322,2
 .902\H,0,5.747,1.766,1.967\H,0,5.921,0.153,1.244\\Version=EM64L-G09Rev
 C.01\State=1-A\HF=-560.0540036\RMSD=9.161e-09\Dipole=0.0738208,-0.2853
 963,0.2383201\Quadrupole=1.1590722,0.598223,-1.7572952,-0.2901949,2.83
 93708,1.546763\PG=C01 [X(C3H10O2Si1)]\\@


 GETTING A SIMPLE ANSWER FROM A PROFESSOR IS LIKE
 GETTING A THIMBLE OF WATER FROM A FIRE HYDRANT.
     -- PROF. LEN SHAPIRO, NDSU
 Job cpu time:  0 days  0 hours 12 minutes 49.5 seconds.
 File lengths (MBytes):  RWF=     40 Int=      0 D2E=      0 Chk=      3 Scr=      1
 Normal termination of Gaussian 09 at Wed Aug  8 14:17:45 2018.
