 Entering Gaussian System, Link 0=g09
 Initial command:
 /usr/local/gaussian09/g09/l1.exe /scratch/renato/Gau-5859.inp -scrdir=/scratch/renato/
 Entering Link 1 = /usr/local/gaussian09/g09/l1.exe PID=      5861.
  
 Copyright (c) 1988,1990,1992,1993,1995,1998,2003,2009,2011,
            Gaussian, Inc.  All Rights Reserved.
  
 This is part of the Gaussian(R) 09 program.  It is based on
 the Gaussian(R) 03 system (copyright 2003, Gaussian, Inc.),
 the Gaussian(R) 98 system (copyright 1998, Gaussian, Inc.),
 the Gaussian(R) 94 system (copyright 1995, Gaussian, Inc.),
 the Gaussian 92(TM) system (copyright 1992, Gaussian, Inc.),
 the Gaussian 90(TM) system (copyright 1990, Gaussian, Inc.),
 the Gaussian 88(TM) system (copyright 1988, Gaussian, Inc.),
 the Gaussian 86(TM) system (copyright 1986, Carnegie Mellon
 University), and the Gaussian 82(TM) system (copyright 1983,
 Carnegie Mellon University). Gaussian is a federally registered
 trademark of Gaussian, Inc.
  
 This software contains proprietary and confidential information,
 including trade secrets, belonging to Gaussian, Inc.
  
 This software is provided under written license and may be
 used, copied, transmitted, or stored only in accord with that
 written license.
  
 The following legend is applicable only to US Government
 contracts under FAR:
  
                    RESTRICTED RIGHTS LEGEND
  
 Use, reproduction and disclosure by the US Government is
 subject to restrictions as set forth in subparagraphs (a)
 and (c) of the Commercial Computer Software - Restricted
 Rights clause in FAR 52.227-19.
  
 Gaussian, Inc.
 340 Quinnipiac St., Bldg. 40, Wallingford CT 06492
  
  
 ---------------------------------------------------------------
 Warning -- This program may not be used in any manner that
 competes with the business of Gaussian, Inc. or will provide
 assistance to any competitor of Gaussian, Inc.  The licensee
 of this program is prohibited from giving any competitor of
 Gaussian, Inc. access to this program.  By using this program,
 the user acknowledges that Gaussian, Inc. is engaged in the
 business of creating and licensing software in the field of
 computational chemistry and represents and warrants to the
 licensee that it is not a competitor of Gaussian, Inc. and that
 it will not use this program in any manner prohibited above.
 ---------------------------------------------------------------
  

 Cite this work as:
 Gaussian 09, Revision C.01,
 M. J. Frisch, G. W. Trucks, H. B. Schlegel, G. E. Scuseria, 
 M. A. Robb, J. R. Cheeseman, G. Scalmani, V. Barone, B. Mennucci, 
 G. A. Petersson, H. Nakatsuji, M. Caricato, X. Li, H. P. Hratchian, 
 A. F. Izmaylov, J. Bloino, G. Zheng, J. L. Sonnenberg, M. Hada, 
 M. Ehara, K. Toyota, R. Fukuda, J. Hasegawa, M. Ishida, T. Nakajima, 
 Y. Honda, O. Kitao, H. Nakai, T. Vreven, J. A. Montgomery, Jr., 
 J. E. Peralta, F. Ogliaro, M. Bearpark, J. J. Heyd, E. Brothers, 
 K. N. Kudin, V. N. Staroverov, T. Keith, R. Kobayashi, J. Normand, 
 K. Raghavachari, A. Rendell, J. C. Burant, S. S. Iyengar, J. Tomasi, 
 M. Cossi, N. Rega, J. M. Millam, M. Klene, J. E. Knox, J. B. Cross, 
 V. Bakken, C. Adamo, J. Jaramillo, R. Gomperts, R. E. Stratmann, 
 O. Yazyev, A. J. Austin, R. Cammi, C. Pomelli, J. W. Ochterski, 
 R. L. Martin, K. Morokuma, V. G. Zakrzewski, G. A. Voth, 
 P. Salvador, J. J. Dannenberg, S. Dapprich, A. D. Daniels, 
 O. Farkas, J. B. Foresman, J. V. Ortiz, J. Cioslowski, 
 and D. J. Fox, Gaussian, Inc., Wallingford CT, 2010.
 
 ******************************************
 Gaussian 09:  EM64L-G09RevC.01 23-Sep-2011
                 8-Aug-2018 
 ******************************************
 %nproc=2
 Will use up to    2 processors via shared memory.
 %mem=256MB
 %RWF=a13.rwf
 %chk=a1324
 %NoSave
 --------------------------------------
 #SP PBE1PBE/Def2TZVP geom=connectivity
 --------------------------------------
 1/38=1,57=2/1;
 2/12=2,17=6,18=5,40=1/2;
 3/5=44,7=101,11=2,16=1,25=1,30=1,74=-13/1,2,3;
 4//1;
 5/5=2,38=5/2;
 6/7=2,8=2,9=2,10=2,28=1/1;
 99/5=1,9=1/99;
 -------------
 Structure: 24
 -------------
 Charge =  0 Multiplicity = 1
 Symbolic Z-Matrix:
 H                     0.        0.        0. 
 C                     1.093     0.        0. 
 C                     1.655     1.421     0. 
 H                     1.41     -0.56     -0.885 
 H                     1.424    -0.557     0.88 
 H                     1.308     1.969    -0.883 
 Si                    3.513     1.515     0.035 
 H                     1.282     1.975     0.868 
 O                     3.82      0.699    -1.364 
 O                     3.968     0.824     1.454 
 H                     4.029     2.906    -0.04 
 H                     3.435    -0.173    -1.462 
 C                     5.301     0.766     1.905 
 H                     5.308     0.322     2.902 
 H                     5.747     1.766     1.967 
 H                     5.921     0.153     1.244 
 
                          Input orientation:                          
 ---------------------------------------------------------------------
 Center     Atomic      Atomic             Coordinates (Angstroms)
 Number     Number       Type             X           Y           Z
 ---------------------------------------------------------------------
      1          1           0        0.000000    0.000000    0.000000
      2          6           0        1.093000    0.000000    0.000000
      3          6           0        1.655000    1.421000    0.000000
      4          1           0        1.410000   -0.560000   -0.885000
      5          1           0        1.424000   -0.557000    0.880000
      6          1           0        1.308000    1.969000   -0.883000
      7         14           0        3.513000    1.515000    0.035000
      8          1           0        1.282000    1.975000    0.868000
      9          8           0        3.820000    0.699000   -1.364000
     10          8           0        3.968000    0.824000    1.454000
     11          1           0        4.029000    2.906000   -0.040000
     12          1           0        3.435000   -0.173000   -1.462000
     13          6           0        5.301000    0.766000    1.905000
     14          1           0        5.308000    0.322000    2.902000
     15          1           0        5.747000    1.766000    1.967000
     16          1           0        5.921000    0.153000    1.244000
 ---------------------------------------------------------------------
                    Distance matrix (angstroms):
                    1          2          3          4          5
     1  H    0.000000
     2  C    1.093000   0.000000
     3  C    2.181345   1.528098   0.000000
     4  H    1.756395   1.094218   2.183486   0.000000
     5  H    1.764207   1.092799   2.177210   1.765058   0.000000
     6  H    2.523393   2.168611   1.095629   2.531057   3.082580
     7  Si   3.825914   2.855320   1.860706   3.094291   3.061230
     8  H    2.509497   2.165588   1.095203   3.084740   2.536007
     9  O    4.116005   3.128199   2.658760   2.760910   3.514810
    10  O    4.305591   3.325465   2.796515   3.732257   2.951029
    11  H    4.967824   4.131166   2.800482   4.425646   4.429988
    12  H    3.737191   2.766286   2.801193   2.140870   3.110714
    13  C    5.684750   4.682205   4.165497   4.968124   4.222805
    14  H    6.058065   5.127525   4.793101   5.505788   4.466160
    15  H    6.325809   5.352342   4.553304   5.688036   5.026552
    16  H    6.052205   4.988039   4.621051   5.038862   4.567232
                    6          7          8          9         10
     6  H    0.000000
     7  Si   2.431227   0.000000
     8  H    1.751203   2.425459   0.000000
     9  O    2.855592   1.648425   3.612678   0.000000
    10  O    3.721316   1.642579   2.980401   2.824651   0.000000
    11  H    2.998743   1.485517   3.039282   2.582151   2.563295
    12  H    3.073684   2.257529   3.831216   0.958234   3.127484
    13  C    5.016393   2.693482   4.323125   3.589458   1.408423
    14  H    5.747942   3.586776   4.803982   4.533765   2.035757
    15  H    5.279056   2.964183   4.603011   3.993417   2.077348
    16  H    5.394604   3.019137   4.998138   3.393226   2.075705
                   11         12         13         14         15
    11  H    0.000000
    12  H    3.443132   0.000000
    13  C    3.159210   3.962369   0.000000
    14  H    4.119255   4.774688   1.091418   0.000000
    15  H    2.877355   4.567615   1.096704   1.775410   0.000000
    16  H    3.578733   3.689025   1.094116   1.775752   1.776168
                   16
    16  H    0.000000
 Stoichiometry    C3H10O2Si
 Framework group  C1[X(C3H10O2Si)]
 Deg. of freedom    42
 Full point group                 C1      NOp   1
 Largest Abelian subgroup         C1      NOp   1
 Largest concise Abelian subgroup C1      NOp   1
                         Standard orientation:                         
 ---------------------------------------------------------------------
 Center     Atomic      Atomic             Coordinates (Angstroms)
 Number     Number       Type             X           Y           Z
 ---------------------------------------------------------------------
      1          1           0       -3.089002   -1.397725   -0.401023
      2          6           0       -2.127787   -0.911796   -0.587001
      3          6           0       -1.521177   -0.354954    0.700258
      4          1           0       -2.308727   -0.122517   -1.322945
      5          1           0       -1.467656   -1.649951   -1.049131
      6          1           0       -2.197499    0.376752    1.155888
      7         14           0        0.136663    0.460963    0.481010
      8          1           0       -1.397940   -1.155648    1.437259
      9          8           0       -0.314596    1.637309   -0.581949
     10          8           0        1.148263   -0.719563   -0.049171
     11          1           0        0.665240    1.056071    1.735289
     12          1           0       -0.768136    1.362953   -1.380224
     13          6           0        2.527661   -0.531516   -0.262602
     14          1           0        2.966715   -1.491011   -0.541518
     15          1           0        3.028069   -0.171093    0.644287
     16          1           0        2.714146    0.186300   -1.066998
 ---------------------------------------------------------------------
 Rotational constants (GHZ):      4.2326115      1.8818683      1.5993722
 Standard basis: def2TZVP (5D, 7F)
 There are   252 symmetry adapted basis functions of A   symmetry.
 Integral buffers will be    131072 words long.
 Raffenetti 2 integral format.
 Two-electron integral symmetry is turned on.
   252 basis functions,   404 primitive gaussians,   282 cartesian basis functions
    29 alpha electrons       29 beta electrons
       nuclear repulsion energy       330.7901747354 Hartrees.
 NAtoms=   16 NActive=   16 NUniq=   16 SFac= 1.00D+00 NAtFMM=   60 NAOKFM=F Big=F
 One-electron integrals computed using PRISM.
   1 Symmetry operations used in ECPInt.
 ECPInt:  NShTT=    5886 NPrTT=   17754 LenC2=    5778 LenP2D=   13932.
 LDataN:  DoStor=T MaxTD1= 6 Len=  172
 NBasis=   252 RedAO= T  NBF=   252
 NBsUse=   252 1.00D-06 NBFU=   252
 Harris functional with IExCor= 1009 diagonalized for initial guess.
 ExpMin= 7.01D-02 ExpMax= 4.48D+04 ExpMxC= 1.53D+03 IAcc=2 IRadAn=         4 AccDes= 0.00D+00
 HarFok:  IExCor= 1009 AccDes= 0.00D+00 IRadAn=         4 IDoV= 1
 ScaDFX=  1.000000  1.000000  1.000000  1.000000
 FoFCou: FMM=F IPFlag=           0 FMFlag=      100000 FMFlg1=           0
         NFxFlg=           0 DoJE=T BraDBF=F KetDBF=T FulRan=T
         Omega=  0.000000  0.000000  1.000000  0.000000  0.000000 ICntrl=     500 IOpCl=  0
         NMat0=    1 NMatS0=    1 NMatT0=    0 NMatD0=    1 NMtDS0=    0 NMtDT0=    0
         I1Cent=           4 NGrid=           0.
 Petite list used in FoFCou.
 Initial guess orbital symmetries:
       Occupied  (A) (A) (A) (A) (A) (A) (A) (A) (A) (A) (A) (A)
                 (A) (A) (A) (A) (A) (A) (A) (A) (A) (A) (A) (A)
                 (A) (A) (A) (A) (A)
       Virtual   (A) (A) (A) (A) (A) (A) (A) (A) (A) (A) (A) (A)
                 (A) (A) (A) (A) (A) (A) (A) (A) (A) (A) (A) (A)
                 (A) (A) (A) (A) (A) (A) (A) (A) (A) (A) (A) (A)
                 (A) (A) (A) (A) (A) (A) (A) (A) (A) (A) (A) (A)
                 (A) (A) (A) (A) (A) (A) (A) (A) (A) (A) (A) (A)
                 (A) (A) (A) (A) (A) (A) (A) (A) (A) (A) (A) (A)
                 (A) (A) (A) (A) (A) (A) (A) (A) (A) (A) (A) (A)
                 (A) (A) (A) (A) (A) (A) (A) (A) (A) (A) (A) (A)
                 (A) (A) (A) (A) (A) (A) (A) (A) (A) (A) (A) (A)
                 (A) (A) (A) (A) (A) (A) (A) (A) (A) (A) (A) (A)
                 (A) (A) (A) (A) (A) (A) (A) (A) (A) (A) (A) (A)
                 (A) (A) (A) (A) (A) (A) (A) (A) (A) (A) (A) (A)
                 (A) (A) (A) (A) (A) (A) (A) (A) (A) (A) (A) (A)
                 (A) (A) (A) (A) (A) (A) (A) (A) (A) (A) (A) (A)
                 (A) (A) (A) (A) (A) (A) (A) (A) (A) (A) (A) (A)
                 (A) (A) (A) (A) (A) (A) (A) (A) (A) (A) (A) (A)
                 (A) (A) (A) (A) (A) (A) (A) (A) (A) (A) (A) (A)
                 (A) (A) (A) (A) (A) (A) (A) (A) (A) (A) (A) (A)
                 (A) (A) (A) (A) (A) (A) (A)
 The electronic state of the initial guess is 1-A.
 Requested convergence on RMS density matrix=1.00D-08 within 128 cycles.
 Requested convergence on MAX density matrix=1.00D-06.
 Requested convergence on             energy=1.00D-06.
 No special actions if energy rises.
 Integral accuracy reduced to 1.0D-05 until final iterations.
 Initial convergence to 1.0D-05 achieved.  Increase integral accuracy.
 SCF Done:  E(RPBE1PBE) =  -560.052322329     A.U. after   12 cycles
             Convg  =    0.9640D-08             -V/T =  2.0032

 **********************************************************************

            Population analysis using the SCF density.

 **********************************************************************

 Orbital symmetries:
       Occupied  (A) (A) (A) (A) (A) (A) (A) (A) (A) (A) (A) (A)
                 (A) (A) (A) (A) (A) (A) (A) (A) (A) (A) (A) (A)
                 (A) (A) (A) (A) (A)
       Virtual   (A) (A) (A) (A) (A) (A) (A) (A) (A) (A) (A) (A)
                 (A) (A) (A) (A) (A) (A) (A) (A) (A) (A) (A) (A)
                 (A) (A) (A) (A) (A) (A) (A) (A) (A) (A) (A) (A)
                 (A) (A) (A) (A) (A) (A) (A) (A) (A) (A) (A) (A)
                 (A) (A) (A) (A) (A) (A) (A) (A) (A) (A) (A) (A)
                 (A) (A) (A) (A) (A) (A) (A) (A) (A) (A) (A) (A)
                 (A) (A) (A) (A) (A) (A) (A) (A) (A) (A) (A) (A)
                 (A) (A) (A) (A) (A) (A) (A) (A) (A) (A) (A) (A)
                 (A) (A) (A) (A) (A) (A) (A) (A) (A) (A) (A) (A)
                 (A) (A) (A) (A) (A) (A) (A) (A) (A) (A) (A) (A)
                 (A) (A) (A) (A) (A) (A) (A) (A) (A) (A) (A) (A)
                 (A) (A) (A) (A) (A) (A) (A) (A) (A) (A) (A) (A)
                 (A) (A) (A) (A) (A) (A) (A) (A) (A) (A) (A) (A)
                 (A) (A) (A) (A) (A) (A) (A) (A) (A) (A) (A) (A)
                 (A) (A) (A) (A) (A) (A) (A) (A) (A) (A) (A) (A)
                 (A) (A) (A) (A) (A) (A) (A) (A) (A) (A) (A) (A)
                 (A) (A) (A) (A) (A) (A) (A) (A) (A) (A) (A) (A)
                 (A) (A) (A) (A) (A) (A) (A) (A) (A) (A) (A) (A)
                 (A) (A) (A) (A) (A) (A) (A)
 The electronic state is 1-A.
 Alpha  occ. eigenvalues --  -66.25641 -19.20804 -19.19757 -10.26980 -10.21481
 Alpha  occ. eigenvalues --  -10.19743  -5.33291  -3.66808  -3.66735  -3.66539
 Alpha  occ. eigenvalues --   -1.04845  -1.02285  -0.77608  -0.71037  -0.63640
 Alpha  occ. eigenvalues --   -0.56474  -0.51646  -0.47355  -0.47026  -0.45770
 Alpha  occ. eigenvalues --   -0.43511  -0.41264  -0.38503  -0.37200  -0.36433
 Alpha  occ. eigenvalues --   -0.35172  -0.32454  -0.30779  -0.28726
 Alpha virt. eigenvalues --    0.02226   0.05046   0.05834   0.07965   0.09021
 Alpha virt. eigenvalues --    0.09556   0.11057   0.11605   0.11906   0.13094
 Alpha virt. eigenvalues --    0.13604   0.15116   0.16636   0.18022   0.19978
 Alpha virt. eigenvalues --    0.21596   0.22342   0.22804   0.25076   0.25469
 Alpha virt. eigenvalues --    0.26734   0.27392   0.28660   0.29832   0.31268
 Alpha virt. eigenvalues --    0.33158   0.35576   0.38477   0.40189   0.40942
 Alpha virt. eigenvalues --    0.41953   0.42738   0.43766   0.45382   0.45598
 Alpha virt. eigenvalues --    0.46329   0.47248   0.48026   0.48696   0.50275
 Alpha virt. eigenvalues --    0.51523   0.54078   0.55831   0.57921   0.58912
 Alpha virt. eigenvalues --    0.61268   0.64812   0.66300   0.66945   0.68405
 Alpha virt. eigenvalues --    0.72827   0.73325   0.75966   0.78807   0.79611
 Alpha virt. eigenvalues --    0.83015   0.84153   0.86372   0.89424   0.91515
 Alpha virt. eigenvalues --    0.93648   0.95366   0.97428   0.99461   0.99770
 Alpha virt. eigenvalues --    1.04160   1.05798   1.06666   1.10004   1.11670
 Alpha virt. eigenvalues --    1.13264   1.14194   1.17551   1.17998   1.20093
 Alpha virt. eigenvalues --    1.24296   1.32165   1.32678   1.37162   1.39945
 Alpha virt. eigenvalues --    1.42967   1.45759   1.47166   1.49427   1.51354
 Alpha virt. eigenvalues --    1.52378   1.53935   1.54836   1.57270   1.58519
 Alpha virt. eigenvalues --    1.60300   1.62337   1.64363   1.64678   1.66263
 Alpha virt. eigenvalues --    1.69283   1.72368   1.75373   1.77359   1.78568
 Alpha virt. eigenvalues --    1.81655   1.83007   1.86475   1.87553   1.93371
 Alpha virt. eigenvalues --    1.95101   1.96345   1.97454   2.01526   2.03574
 Alpha virt. eigenvalues --    2.05834   2.09325   2.11904   2.12742   2.14509
 Alpha virt. eigenvalues --    2.17778   2.21547   2.25407   2.27842   2.30715
 Alpha virt. eigenvalues --    2.32275   2.33383   2.34026   2.34961   2.36103
 Alpha virt. eigenvalues --    2.37566   2.40162   2.44322   2.47234   2.50406
 Alpha virt. eigenvalues --    2.50714   2.53135   2.54677   2.55837   2.58328
 Alpha virt. eigenvalues --    2.59995   2.61844   2.65955   2.69247   2.72097
 Alpha virt. eigenvalues --    2.73087   2.78743   2.81006   2.82500   2.84507
 Alpha virt. eigenvalues --    2.85146   2.94024   2.96404   2.97666   3.02055
 Alpha virt. eigenvalues --    3.05090   3.10053   3.11145   3.12006   3.15235
 Alpha virt. eigenvalues --    3.21638   3.22942   3.24622   3.28906   3.30228
 Alpha virt. eigenvalues --    3.32411   3.32894   3.37749   3.40911   3.44179
 Alpha virt. eigenvalues --    3.44700   3.46521   3.48574   3.52893   3.56108
 Alpha virt. eigenvalues --    3.57609   3.60780   3.64140   3.65846   3.77363
 Alpha virt. eigenvalues --    3.81841   3.89604   3.93829   3.96854   4.03424
 Alpha virt. eigenvalues --    4.18337   4.24119   4.24995   4.34780   4.36298
 Alpha virt. eigenvalues --    4.42261   4.47755   4.53651   4.57455   4.79753
 Alpha virt. eigenvalues --    5.16425   5.17209   5.17466   5.18934   5.27495
 Alpha virt. eigenvalues --    5.28836   5.38431   5.41712   5.45804   5.51133
 Alpha virt. eigenvalues --    5.79530   5.85595   6.02862   6.23640   6.42748
 Alpha virt. eigenvalues --    6.45656   6.55817   6.58227   6.59962   6.63478
 Alpha virt. eigenvalues --    6.67471   6.76698   6.82789   6.95899   7.06877
 Alpha virt. eigenvalues --    7.16459   7.27278  11.95303  22.37450  22.41116
 Alpha virt. eigenvalues --   22.46748  43.64954  43.94957
          Condensed to atoms (all electrons):
              1          2          3          4          5          6
     1  H    0.548595   0.407120  -0.032406  -0.023480  -0.024061  -0.006844
     2  C    0.407120   4.950539   0.308156   0.398083   0.411411  -0.027098
     3  C   -0.032406   0.308156   5.026208  -0.047054  -0.039806   0.387784
     4  H   -0.023480   0.398083  -0.047054   0.605831  -0.029710  -0.005548
     5  H   -0.024061   0.411411  -0.039806  -0.029710   0.537108   0.007798
     6  H   -0.006844  -0.027098   0.387784  -0.005548   0.007798   0.582899
     7  Si   0.008352  -0.019582   0.453892  -0.011646  -0.007905  -0.028944
     8  H   -0.006794  -0.026889   0.360971   0.010301  -0.003993  -0.027334
     9  O    0.000347  -0.006266  -0.048396   0.006290  -0.000588  -0.002923
    10  O    0.000024  -0.005174  -0.030567   0.000994   0.007359   0.001266
    11  H   -0.000079   0.001741  -0.033078   0.000191   0.000412   0.001294
    12  H   -0.000140   0.002826  -0.003089   0.004138  -0.000088   0.000191
    13  C    0.000012  -0.000199   0.002896   0.000082  -0.000083  -0.000149
    14  H   -0.000004   0.000202  -0.000493   0.000000  -0.000149   0.000000
    15  H    0.000001  -0.000048   0.000029   0.000003   0.000080  -0.000003
    16  H    0.000000  -0.000040   0.000711  -0.000041   0.000005   0.000019
              7          8          9         10         11         12
     1  H    0.008352  -0.006794   0.000347   0.000024  -0.000079  -0.000140
     2  C   -0.019582  -0.026889  -0.006266  -0.005174   0.001741   0.002826
     3  C    0.453892   0.360971  -0.048396  -0.030567  -0.033078  -0.003089
     4  H   -0.011646   0.010301   0.006290   0.000994   0.000191   0.004138
     5  H   -0.007905  -0.003993  -0.000588   0.007359   0.000412  -0.000088
     6  H   -0.028944  -0.027334  -0.002923   0.001266   0.001294   0.000191
     7  Si  11.893892  -0.025822   0.444944   0.441183   0.392425  -0.028667
     8  H   -0.025822   0.606902   0.004574   0.002784   0.001273  -0.000119
     9  O    0.444944   0.004574   7.860208  -0.028426  -0.010112   0.306747
    10  O    0.441183   0.002784  -0.028426   7.839305  -0.024996  -0.001370
    11  H    0.392425   0.001273  -0.010112  -0.024996   0.707085   0.002762
    12  H   -0.028667  -0.000119   0.306747  -0.001370   0.002762   0.396990
    13  C   -0.046337   0.000070  -0.003199   0.257035   0.001718   0.000205
    14  H    0.007449   0.000012   0.000004  -0.041496  -0.000204   0.000013
    15  H   -0.018979  -0.000012  -0.000423  -0.041574   0.009304  -0.000040
    16  H   -0.003922  -0.000034   0.003873  -0.043511  -0.001913   0.000323
             13         14         15         16
     1  H    0.000012  -0.000004   0.000001   0.000000
     2  C   -0.000199   0.000202  -0.000048  -0.000040
     3  C    0.002896  -0.000493   0.000029   0.000711
     4  H    0.000082   0.000000   0.000003  -0.000041
     5  H   -0.000083  -0.000149   0.000080   0.000005
     6  H   -0.000149   0.000000  -0.000003   0.000019
     7  Si  -0.046337   0.007449  -0.018979  -0.003922
     8  H    0.000070   0.000012  -0.000012  -0.000034
     9  O   -0.003199   0.000004  -0.000423   0.003873
    10  O    0.257035  -0.041496  -0.041574  -0.043511
    11  H    0.001718  -0.000204   0.009304  -0.001913
    12  H    0.000205   0.000013  -0.000040   0.000323
    13  C    4.773966   0.403727   0.417896   0.413307
    14  H    0.403727   0.561248  -0.029074  -0.032424
    15  H    0.417896  -0.029074   0.592375  -0.049106
    16  H    0.413307  -0.032424  -0.049106   0.588530
 Mulliken atomic charges:
              1
     1  H    0.129358
     2  C   -0.394784
     3  C   -0.305759
     4  H    0.091562
     5  H    0.142211
     6  H    0.117591
     7  Si   0.549667
     8  H    0.104110
     9  O   -0.526655
    10  O   -0.332834
    11  H   -0.047822
    12  H    0.319319
    13  C   -0.220947
    14  H    0.131189
    15  H    0.119572
    16  H    0.124223
 Sum of Mulliken atomic charges =   0.00000
 Mulliken charges with hydrogens summed into heavy atoms:
              1
     2  C   -0.031653
     3  C   -0.084058
     7  Si   0.501844
     9  O   -0.207336
    10  O   -0.332834
    13  C    0.154037
 Sum of Mulliken charges with hydrogens summed into heavy atoms =   0.00000
 Electronic spatial extent (au):  <R**2>=            860.3819
 Charge=              0.0000 electrons
 Dipole moment (field-independent basis, Debye):
    X=              0.4623    Y=             -0.5936    Z=             -0.6229  Tot=              0.9767
 Quadrupole moment (field-independent basis, Debye-Ang):
   XX=            -40.4667   YY=            -49.7097   ZZ=            -43.2044
   XY=             -0.4784   XZ=              0.5689   YZ=             -0.5458
 Traceless Quadrupole moment (field-independent basis, Debye-Ang):
   XX=              3.9936   YY=             -5.2494   ZZ=              1.2558
   XY=             -0.4784   XZ=              0.5689   YZ=             -0.5458
 Octapole moment (field-independent basis, Debye-Ang**2):
  XXX=             15.5326  YYY=             -7.1181  ZZZ=             -9.2789  XYY=              1.5939
  XXY=             -0.1095  XXZ=             -3.5916  XZZ=             -0.5782  YZZ=              3.7925
  YYZ=             -1.0945  XYZ=              2.2121
 Hexadecapole moment (field-independent basis, Debye-Ang**3):
 XXXX=           -702.2442 YYYY=           -282.4885 ZZZZ=           -166.5717 XXXY=            -16.2820
 XXXZ=             -4.7538 YYYX=             -9.3850 YYYZ=             -1.5552 ZZZX=              2.6482
 ZZZY=            -15.3896 XXYY=           -159.9402 XXZZ=           -149.6867 YYZZ=            -68.7332
 XXYZ=             -2.4023 YYXZ=             -0.6813 ZZXY=             -8.6519
 N-N= 3.307901747354D+02 E-N=-1.985553066886D+03  KE= 5.582574998881D+02
 1\1\GINC-TARSUS4\SP\RPBE1PBE\def2TZVP\C3H10O2Si1\RENATO\08-Aug-2018\0\
 \#SP PBE1PBE/Def2TZVP geom=connectivity\\Structure: 24\\0,1\H,0,0.,0.,
 0.\C,0,1.093,0.,0.\C,0,1.655,1.421,0.\H,0,1.41,-0.56,-0.885\H,0,1.424,
 -0.557,0.88\H,0,1.308,1.969,-0.883\Si,0,3.513,1.515,0.035\H,0,1.282,1.
 975,0.868\O,0,3.82,0.699,-1.364\O,0,3.968,0.824,1.454\H,0,4.029,2.906,
 -0.04\H,0,3.435,-0.173,-1.462\C,0,5.301,0.766,1.905\H,0,5.308,0.322,2.
 902\H,0,5.747,1.766,1.967\H,0,5.921,0.153,1.244\\Version=EM64L-G09RevC
 .01\State=1-A\HF=-560.0523223\RMSD=9.640e-09\Dipole=0.0978279,-0.27454
 51,0.2504421\Quadrupole=1.2086183,0.6030097,-1.811628,-0.2074098,2.842
 9863,1.5003517\PG=C01 [X(C3H10O2Si1)]\\@



 WE LOSE BECAUSE WE WIN

 GAMBLERS,

 RECOLLECTING WHICH,

 TOSS THEIR DICE AGAIN....


                          EMILY DICKINSON  BOLTS OF MELODY NO. 533
 Job cpu time:  0 days  0 hours 12 minutes 39.4 seconds.
 File lengths (MBytes):  RWF=     40 Int=      0 D2E=      0 Chk=      3 Scr=      1
 Normal termination of Gaussian 09 at Wed Aug  8 13:51:53 2018.
