 Entering Gaussian System, Link 0=g09
 Initial command:
 /usr/local/gaussian09/g09/l1.exe /scratch/renato/Gau-5498.inp -scrdir=/scratch/renato/
 Entering Link 1 = /usr/local/gaussian09/g09/l1.exe PID=      5500.
  
 Copyright (c) 1988,1990,1992,1993,1995,1998,2003,2009,2011,
            Gaussian, Inc.  All Rights Reserved.
  
 This is part of the Gaussian(R) 09 program.  It is based on
 the Gaussian(R) 03 system (copyright 2003, Gaussian, Inc.),
 the Gaussian(R) 98 system (copyright 1998, Gaussian, Inc.),
 the Gaussian(R) 94 system (copyright 1995, Gaussian, Inc.),
 the Gaussian 92(TM) system (copyright 1992, Gaussian, Inc.),
 the Gaussian 90(TM) system (copyright 1990, Gaussian, Inc.),
 the Gaussian 88(TM) system (copyright 1988, Gaussian, Inc.),
 the Gaussian 86(TM) system (copyright 1986, Carnegie Mellon
 University), and the Gaussian 82(TM) system (copyright 1983,
 Carnegie Mellon University). Gaussian is a federally registered
 trademark of Gaussian, Inc.
  
 This software contains proprietary and confidential information,
 including trade secrets, belonging to Gaussian, Inc.
  
 This software is provided under written license and may be
 used, copied, transmitted, or stored only in accord with that
 written license.
  
 The following legend is applicable only to US Government
 contracts under FAR:
  
                    RESTRICTED RIGHTS LEGEND
  
 Use, reproduction and disclosure by the US Government is
 subject to restrictions as set forth in subparagraphs (a)
 and (c) of the Commercial Computer Software - Restricted
 Rights clause in FAR 52.227-19.
  
 Gaussian, Inc.
 340 Quinnipiac St., Bldg. 40, Wallingford CT 06492
  
  
 ---------------------------------------------------------------
 Warning -- This program may not be used in any manner that
 competes with the business of Gaussian, Inc. or will provide
 assistance to any competitor of Gaussian, Inc.  The licensee
 of this program is prohibited from giving any competitor of
 Gaussian, Inc. access to this program.  By using this program,
 the user acknowledges that Gaussian, Inc. is engaged in the
 business of creating and licensing software in the field of
 computational chemistry and represents and warrants to the
 licensee that it is not a competitor of Gaussian, Inc. and that
 it will not use this program in any manner prohibited above.
 ---------------------------------------------------------------
  

 Cite this work as:
 Gaussian 09, Revision C.01,
 M. J. Frisch, G. W. Trucks, H. B. Schlegel, G. E. Scuseria, 
 M. A. Robb, J. R. Cheeseman, G. Scalmani, V. Barone, B. Mennucci, 
 G. A. Petersson, H. Nakatsuji, M. Caricato, X. Li, H. P. Hratchian, 
 A. F. Izmaylov, J. Bloino, G. Zheng, J. L. Sonnenberg, M. Hada, 
 M. Ehara, K. Toyota, R. Fukuda, J. Hasegawa, M. Ishida, T. Nakajima, 
 Y. Honda, O. Kitao, H. Nakai, T. Vreven, J. A. Montgomery, Jr., 
 J. E. Peralta, F. Ogliaro, M. Bearpark, J. J. Heyd, E. Brothers, 
 K. N. Kudin, V. N. Staroverov, T. Keith, R. Kobayashi, J. Normand, 
 K. Raghavachari, A. Rendell, J. C. Burant, S. S. Iyengar, J. Tomasi, 
 M. Cossi, N. Rega, J. M. Millam, M. Klene, J. E. Knox, J. B. Cross, 
 V. Bakken, C. Adamo, J. Jaramillo, R. Gomperts, R. E. Stratmann, 
 O. Yazyev, A. J. Austin, R. Cammi, C. Pomelli, J. W. Ochterski, 
 R. L. Martin, K. Morokuma, V. G. Zakrzewski, G. A. Voth, 
 P. Salvador, J. J. Dannenberg, S. Dapprich, A. D. Daniels, 
 O. Farkas, J. B. Foresman, J. V. Ortiz, J. Cioslowski, 
 and D. J. Fox, Gaussian, Inc., Wallingford CT, 2010.
 
 ******************************************
 Gaussian 09:  EM64L-G09RevC.01 23-Sep-2011
                 8-Aug-2018 
 ******************************************
 %nproc=2
 Will use up to    2 processors via shared memory.
 %mem=256MB
 %RWF=a13.rwf
 %chk=a1320
 %NoSave
 --------------------------------------
 #SP PBE1PBE/Def2TZVP geom=connectivity
 --------------------------------------
 1/38=1,57=2/1;
 2/12=2,17=6,18=5,40=1/2;
 3/5=44,7=101,11=2,16=1,25=1,30=1,74=-13/1,2,3;
 4//1;
 5/5=2,38=5/2;
 6/7=2,8=2,9=2,10=2,28=1/1;
 99/5=1,9=1/99;
 -------------
 Structure: 20
 -------------
 Charge =  0 Multiplicity = 1
 Symbolic Z-Matrix:
 H                     0.        0.        0. 
 C                     1.093     0.        0. 
 C                     1.655     1.421     0. 
 H                     1.41     -0.56     -0.885 
 H                     1.424    -0.557     0.88 
 H                     1.308     1.969    -0.883 
 Si                    3.513     1.515     0.035 
 H                     1.282     1.975     0.868 
 O                     3.783     0.694    -1.369 
 O                     3.968     0.824     1.454 
 H                     4.029     2.906    -0.04 
 H                     3.385    -0.173    -1.458 
 C                     5.301     0.766     1.905 
 H                     5.308     0.322     2.902 
 H                     5.747     1.766     1.967 
 H                     5.921     0.153     1.244 
 
                          Input orientation:                          
 ---------------------------------------------------------------------
 Center     Atomic      Atomic             Coordinates (Angstroms)
 Number     Number       Type             X           Y           Z
 ---------------------------------------------------------------------
      1          1           0        0.000000    0.000000    0.000000
      2          6           0        1.093000    0.000000    0.000000
      3          6           0        1.655000    1.421000    0.000000
      4          1           0        1.410000   -0.560000   -0.885000
      5          1           0        1.424000   -0.557000    0.880000
      6          1           0        1.308000    1.969000   -0.883000
      7         14           0        3.513000    1.515000    0.035000
      8          1           0        1.282000    1.975000    0.868000
      9          8           0        3.783000    0.694000   -1.369000
     10          8           0        3.968000    0.824000    1.454000
     11          1           0        4.029000    2.906000   -0.040000
     12          1           0        3.385000   -0.173000   -1.458000
     13          6           0        5.301000    0.766000    1.905000
     14          1           0        5.308000    0.322000    2.902000
     15          1           0        5.747000    1.766000    1.967000
     16          1           0        5.921000    0.153000    1.244000
 ---------------------------------------------------------------------
                    Distance matrix (angstroms):
                    1          2          3          4          5
     1  H    0.000000
     2  C    1.093000   0.000000
     3  C    2.181345   1.528098   0.000000
     4  H    1.756395   1.094218   2.183486   0.000000
     5  H    1.764207   1.092799   2.177210   1.765058   0.000000
     6  H    2.523393   2.168611   1.095629   2.531057   3.082580
     7  Si   3.825914   2.855320   1.860706   3.094291   3.061230
     8  H    2.509497   2.165588   1.095203   3.084740   2.536007
     9  O    4.082510   3.097079   2.632693   2.727252   3.491115
    10  O    4.305591   3.325465   2.796515   3.732257   2.951029
    11  H    4.967824   4.131166   2.800482   4.425646   4.429988
    12  H    3.689704   2.721940   2.767580   2.092540   3.075585
    13  C    5.684750   4.682205   4.165497   4.968124   4.222805
    14  H    6.058065   5.127525   4.793101   5.505788   4.466160
    15  H    6.325809   5.352342   4.553304   5.688036   5.026552
    16  H    6.052205   4.988039   4.621051   5.038862   4.567232
                    6          7          8          9         10
     6  H    0.000000
     7  Si   2.431227   0.000000
     8  H    1.751203   2.425459   0.000000
     9  O    2.826207   1.648683   3.591675   0.000000
    10  O    3.721316   1.642579   2.980401   2.832041   0.000000
    11  H    2.998743   1.485517   3.039282   2.592239   2.563295
    12  H    3.038539   2.257161   3.800893   0.958130   3.132673
    13  C    5.016393   2.693482   4.323125   3.609513   1.408423
    14  H    5.747942   3.586776   4.803982   4.550324   2.035757
    15  H    5.279056   2.964183   4.603011   4.016886   2.077348
    16  H    5.394604   3.019137   4.998138   3.419283   2.075705
                   11         12         13         14         15
    11  H    0.000000
    12  H    3.450464   0.000000
    13  C    3.159210   3.982781   0.000000
    14  H    4.119255   4.790882   1.091418   0.000000
    15  H    2.877355   4.590141   1.096704   1.775410   0.000000
    16  H    3.578733   3.719997   1.094116   1.775752   1.776168
                   16
    16  H    0.000000
 Stoichiometry    C3H10O2Si
 Framework group  C1[X(C3H10O2Si)]
 Deg. of freedom    42
 Full point group                 C1      NOp   1
 Largest Abelian subgroup         C1      NOp   1
 Largest concise Abelian subgroup C1      NOp   1
                         Standard orientation:                         
 ---------------------------------------------------------------------
 Center     Atomic      Atomic             Coordinates (Angstroms)
 Number     Number       Type             X           Y           Z
 ---------------------------------------------------------------------
      1          1           0       -3.077264   -1.412615   -0.388222
      2          6           0       -2.118780   -0.922982   -0.578532
      3          6           0       -1.512564   -0.356395    0.704654
      4          1           0       -2.304922   -0.138492   -1.318289
      5          1           0       -1.455884   -1.660331   -1.037983
      6          1           0       -2.191631    0.374391    1.157669
      7         14           0        0.140859    0.466446    0.478051
      8          1           0       -1.384067   -1.152576    1.445635
      9          8           0       -0.353303    1.621594   -0.589466
     10          8           0        1.157262   -0.711904   -0.047767
     11          1           0        0.668797    1.070742    1.728199
     12          1           0       -0.813681    1.328303   -1.376897
     13          6           0        2.535332   -0.518247   -0.264730
     14          1           0        2.978572   -1.477044   -0.539396
     15          1           0        3.035618   -0.150601    0.639322
     16          1           0        2.716836    0.196216   -1.073241
 ---------------------------------------------------------------------
 Rotational constants (GHZ):      4.2618655      1.8785547      1.6008958
 Standard basis: def2TZVP (5D, 7F)
 There are   252 symmetry adapted basis functions of A   symmetry.
 Integral buffers will be    131072 words long.
 Raffenetti 2 integral format.
 Two-electron integral symmetry is turned on.
   252 basis functions,   404 primitive gaussians,   282 cartesian basis functions
    29 alpha electrons       29 beta electrons
       nuclear repulsion energy       330.9596813919 Hartrees.
 NAtoms=   16 NActive=   16 NUniq=   16 SFac= 1.00D+00 NAtFMM=   60 NAOKFM=F Big=F
 One-electron integrals computed using PRISM.
   1 Symmetry operations used in ECPInt.
 ECPInt:  NShTT=    5886 NPrTT=   17754 LenC2=    5778 LenP2D=   13936.
 LDataN:  DoStor=T MaxTD1= 6 Len=  172
 NBasis=   252 RedAO= T  NBF=   252
 NBsUse=   252 1.00D-06 NBFU=   252
 Harris functional with IExCor= 1009 diagonalized for initial guess.
 ExpMin= 7.01D-02 ExpMax= 4.48D+04 ExpMxC= 1.53D+03 IAcc=2 IRadAn=         4 AccDes= 0.00D+00
 HarFok:  IExCor= 1009 AccDes= 0.00D+00 IRadAn=         4 IDoV= 1
 ScaDFX=  1.000000  1.000000  1.000000  1.000000
 FoFCou: FMM=F IPFlag=           0 FMFlag=      100000 FMFlg1=           0
         NFxFlg=           0 DoJE=T BraDBF=F KetDBF=T FulRan=T
         Omega=  0.000000  0.000000  1.000000  0.000000  0.000000 ICntrl=     500 IOpCl=  0
         NMat0=    1 NMatS0=    1 NMatT0=    0 NMatD0=    1 NMtDS0=    0 NMtDT0=    0
         I1Cent=           4 NGrid=           0.
 Petite list used in FoFCou.
 Initial guess orbital symmetries:
       Occupied  (A) (A) (A) (A) (A) (A) (A) (A) (A) (A) (A) (A)
                 (A) (A) (A) (A) (A) (A) (A) (A) (A) (A) (A) (A)
                 (A) (A) (A) (A) (A)
       Virtual   (A) (A) (A) (A) (A) (A) (A) (A) (A) (A) (A) (A)
                 (A) (A) (A) (A) (A) (A) (A) (A) (A) (A) (A) (A)
                 (A) (A) (A) (A) (A) (A) (A) (A) (A) (A) (A) (A)
                 (A) (A) (A) (A) (A) (A) (A) (A) (A) (A) (A) (A)
                 (A) (A) (A) (A) (A) (A) (A) (A) (A) (A) (A) (A)
                 (A) (A) (A) (A) (A) (A) (A) (A) (A) (A) (A) (A)
                 (A) (A) (A) (A) (A) (A) (A) (A) (A) (A) (A) (A)
                 (A) (A) (A) (A) (A) (A) (A) (A) (A) (A) (A) (A)
                 (A) (A) (A) (A) (A) (A) (A) (A) (A) (A) (A) (A)
                 (A) (A) (A) (A) (A) (A) (A) (A) (A) (A) (A) (A)
                 (A) (A) (A) (A) (A) (A) (A) (A) (A) (A) (A) (A)
                 (A) (A) (A) (A) (A) (A) (A) (A) (A) (A) (A) (A)
                 (A) (A) (A) (A) (A) (A) (A) (A) (A) (A) (A) (A)
                 (A) (A) (A) (A) (A) (A) (A) (A) (A) (A) (A) (A)
                 (A) (A) (A) (A) (A) (A) (A) (A) (A) (A) (A) (A)
                 (A) (A) (A) (A) (A) (A) (A) (A) (A) (A) (A) (A)
                 (A) (A) (A) (A) (A) (A) (A) (A) (A) (A) (A) (A)
                 (A) (A) (A) (A) (A) (A) (A) (A) (A) (A) (A) (A)
                 (A) (A) (A) (A) (A) (A) (A)
 The electronic state of the initial guess is 1-A.
 Requested convergence on RMS density matrix=1.00D-08 within 128 cycles.
 Requested convergence on MAX density matrix=1.00D-06.
 Requested convergence on             energy=1.00D-06.
 No special actions if energy rises.
 Integral accuracy reduced to 1.0D-05 until final iterations.
 Initial convergence to 1.0D-05 achieved.  Increase integral accuracy.
 SCF Done:  E(RPBE1PBE) =  -560.050497664     A.U. after   12 cycles
             Convg  =    0.9866D-08             -V/T =  2.0032

 **********************************************************************

            Population analysis using the SCF density.

 **********************************************************************

 Orbital symmetries:
       Occupied  (A) (A) (A) (A) (A) (A) (A) (A) (A) (A) (A) (A)
                 (A) (A) (A) (A) (A) (A) (A) (A) (A) (A) (A) (A)
                 (A) (A) (A) (A) (A)
       Virtual   (A) (A) (A) (A) (A) (A) (A) (A) (A) (A) (A) (A)
                 (A) (A) (A) (A) (A) (A) (A) (A) (A) (A) (A) (A)
                 (A) (A) (A) (A) (A) (A) (A) (A) (A) (A) (A) (A)
                 (A) (A) (A) (A) (A) (A) (A) (A) (A) (A) (A) (A)
                 (A) (A) (A) (A) (A) (A) (A) (A) (A) (A) (A) (A)
                 (A) (A) (A) (A) (A) (A) (A) (A) (A) (A) (A) (A)
                 (A) (A) (A) (A) (A) (A) (A) (A) (A) (A) (A) (A)
                 (A) (A) (A) (A) (A) (A) (A) (A) (A) (A) (A) (A)
                 (A) (A) (A) (A) (A) (A) (A) (A) (A) (A) (A) (A)
                 (A) (A) (A) (A) (A) (A) (A) (A) (A) (A) (A) (A)
                 (A) (A) (A) (A) (A) (A) (A) (A) (A) (A) (A) (A)
                 (A) (A) (A) (A) (A) (A) (A) (A) (A) (A) (A) (A)
                 (A) (A) (A) (A) (A) (A) (A) (A) (A) (A) (A) (A)
                 (A) (A) (A) (A) (A) (A) (A) (A) (A) (A) (A) (A)
                 (A) (A) (A) (A) (A) (A) (A) (A) (A) (A) (A) (A)
                 (A) (A) (A) (A) (A) (A) (A) (A) (A) (A) (A) (A)
                 (A) (A) (A) (A) (A) (A) (A) (A) (A) (A) (A) (A)
                 (A) (A) (A) (A) (A) (A) (A) (A) (A) (A) (A) (A)
                 (A) (A) (A) (A) (A) (A) (A)
 The electronic state is 1-A.
 Alpha  occ. eigenvalues --  -66.25676 -19.20873 -19.19681 -10.27025 -10.21470
 Alpha  occ. eigenvalues --  -10.19642  -5.33325  -3.66843  -3.66771  -3.66569
 Alpha  occ. eigenvalues --   -1.04890  -1.02261  -0.77559  -0.71083  -0.63614
 Alpha  occ. eigenvalues --   -0.56439  -0.51681  -0.47401  -0.47065  -0.45775
 Alpha  occ. eigenvalues --   -0.43508  -0.41306  -0.38444  -0.37181  -0.36416
 Alpha  occ. eigenvalues --   -0.35115  -0.32499  -0.30825  -0.28572
 Alpha virt. eigenvalues --    0.02168   0.04991   0.05805   0.07934   0.09026
 Alpha virt. eigenvalues --    0.09493   0.11051   0.11651   0.11887   0.13055
 Alpha virt. eigenvalues --    0.13614   0.15107   0.16668   0.18088   0.20059
 Alpha virt. eigenvalues --    0.21648   0.22370   0.22737   0.25083   0.25473
 Alpha virt. eigenvalues --    0.26743   0.27256   0.28605   0.29835   0.31329
 Alpha virt. eigenvalues --    0.33340   0.35468   0.38439   0.40211   0.40993
 Alpha virt. eigenvalues --    0.41940   0.42767   0.43784   0.45360   0.45572
 Alpha virt. eigenvalues --    0.46369   0.47229   0.48015   0.48585   0.50260
 Alpha virt. eigenvalues --    0.51526   0.54171   0.55924   0.57999   0.58739
 Alpha virt. eigenvalues --    0.61320   0.64939   0.66274   0.67031   0.68669
 Alpha virt. eigenvalues --    0.72760   0.73282   0.76034   0.78531   0.79722
 Alpha virt. eigenvalues --    0.82943   0.84290   0.86371   0.89623   0.91516
 Alpha virt. eigenvalues --    0.93730   0.95355   0.97466   0.99345   0.99779
 Alpha virt. eigenvalues --    1.04093   1.05614   1.06585   1.10113   1.11557
 Alpha virt. eigenvalues --    1.13333   1.14261   1.17756   1.17833   1.19960
 Alpha virt. eigenvalues --    1.24347   1.32085   1.33286   1.37254   1.39837
 Alpha virt. eigenvalues --    1.43067   1.45635   1.47087   1.49380   1.51264
 Alpha virt. eigenvalues --    1.52343   1.53868   1.54748   1.57295   1.58570
 Alpha virt. eigenvalues --    1.60449   1.62248   1.64486   1.64759   1.66220
 Alpha virt. eigenvalues --    1.69203   1.72547   1.75200   1.77183   1.78646
 Alpha virt. eigenvalues --    1.81546   1.83193   1.86367   1.87833   1.93527
 Alpha virt. eigenvalues --    1.94969   1.96084   1.97526   2.01675   2.03482
 Alpha virt. eigenvalues --    2.05864   2.09373   2.11780   2.12742   2.14681
 Alpha virt. eigenvalues --    2.17760   2.21546   2.25219   2.28191   2.30725
 Alpha virt. eigenvalues --    2.32329   2.33454   2.34036   2.35031   2.36138
 Alpha virt. eigenvalues --    2.37835   2.40255   2.44365   2.47227   2.50296
 Alpha virt. eigenvalues --    2.50830   2.53454   2.54686   2.55809   2.58387
 Alpha virt. eigenvalues --    2.59979   2.62098   2.66024   2.69351   2.72184
 Alpha virt. eigenvalues --    2.73176   2.78879   2.81184   2.82383   2.84478
 Alpha virt. eigenvalues --    2.85148   2.94072   2.96752   2.97505   3.02185
 Alpha virt. eigenvalues --    3.05135   3.10011   3.11299   3.12210   3.15236
 Alpha virt. eigenvalues --    3.21580   3.22984   3.24633   3.29229   3.30235
 Alpha virt. eigenvalues --    3.32441   3.32995   3.37769   3.40958   3.44109
 Alpha virt. eigenvalues --    3.44527   3.46659   3.48795   3.52802   3.56552
 Alpha virt. eigenvalues --    3.57579   3.60689   3.64228   3.66008   3.77466
 Alpha virt. eigenvalues --    3.81854   3.89675   3.93980   3.97035   4.03511
 Alpha virt. eigenvalues --    4.18286   4.24058   4.25040   4.34865   4.36249
 Alpha virt. eigenvalues --    4.42314   4.47834   4.53633   4.57505   4.79906
 Alpha virt. eigenvalues --    5.16557   5.17191   5.17552   5.19034   5.27412
 Alpha virt. eigenvalues --    5.28815   5.38429   5.41704   5.45833   5.51333
 Alpha virt. eigenvalues --    5.79497   5.85506   6.02809   6.23816   6.42812
 Alpha virt. eigenvalues --    6.45931   6.55981   6.58035   6.59809   6.63196
 Alpha virt. eigenvalues --    6.67648   6.76529   6.82889   6.95921   7.07095
 Alpha virt. eigenvalues --    7.16487   7.27786  11.95527  22.37501  22.41097
 Alpha virt. eigenvalues --   22.46933  43.65465  43.95004
          Condensed to atoms (all electrons):
              1          2          3          4          5          6
     1  H    0.548408   0.407093  -0.032416  -0.023349  -0.023967  -0.006817
     2  C    0.407093   4.951114   0.307779   0.397666   0.411288  -0.026851
     3  C   -0.032416   0.307779   5.027388  -0.047211  -0.039826   0.387878
     4  H   -0.023349   0.397666  -0.047211   0.608170  -0.029869  -0.005617
     5  H   -0.023967   0.411288  -0.039826  -0.029869   0.537197   0.007790
     6  H   -0.006817  -0.026851   0.387878  -0.005617   0.007790   0.583274
     7  Si   0.008383  -0.019755   0.456447  -0.012164  -0.007870  -0.028992
     8  H   -0.006818  -0.026702   0.359684   0.010441  -0.003958  -0.027383
     9  O    0.000390  -0.006986  -0.050070   0.006178  -0.000578  -0.003193
    10  O    0.000024  -0.005161  -0.030436   0.001037   0.007345   0.001262
    11  H   -0.000076   0.001742  -0.032966   0.000189   0.000412   0.001289
    12  H   -0.000145   0.003276  -0.003342   0.004384  -0.000108   0.000214
    13  C    0.000011  -0.000217   0.002975   0.000080  -0.000083  -0.000151
    14  H   -0.000004   0.000200  -0.000497   0.000001  -0.000147   0.000000
    15  H    0.000001  -0.000048   0.000038   0.000004   0.000080  -0.000004
    16  H    0.000000  -0.000032   0.000694  -0.000043   0.000004   0.000019
              7          8          9         10         11         12
     1  H    0.008383  -0.006818   0.000390   0.000024  -0.000076  -0.000145
     2  C   -0.019755  -0.026702  -0.006986  -0.005161   0.001742   0.003276
     3  C    0.456447   0.359684  -0.050070  -0.030436  -0.032966  -0.003342
     4  H   -0.012164   0.010441   0.006178   0.001037   0.000189   0.004384
     5  H   -0.007870  -0.003958  -0.000578   0.007345   0.000412  -0.000108
     6  H   -0.028992  -0.027383  -0.003193   0.001262   0.001289   0.000214
     7  Si  11.895488  -0.027075   0.442664   0.440636   0.392415  -0.028817
     8  H   -0.027075   0.610054   0.004955   0.002867   0.001317  -0.000139
     9  O    0.442664   0.004955   7.862014  -0.027846  -0.009631   0.307469
    10  O    0.440636   0.002867  -0.027846   7.838757  -0.024846  -0.001410
    11  H    0.392415   0.001317  -0.009631  -0.024846   0.704836   0.002664
    12  H   -0.028817  -0.000139   0.307469  -0.001410   0.002664   0.396830
    13  C   -0.046114   0.000068  -0.002991   0.256580   0.001665   0.000168
    14  H    0.007415   0.000014   0.000000  -0.041487  -0.000204   0.000012
    15  H   -0.019059  -0.000012  -0.000416  -0.041485   0.009225  -0.000041
    16  H   -0.003866  -0.000036   0.003682  -0.043496  -0.001900   0.000324
             13         14         15         16
     1  H    0.000011  -0.000004   0.000001   0.000000
     2  C   -0.000217   0.000200  -0.000048  -0.000032
     3  C    0.002975  -0.000497   0.000038   0.000694
     4  H    0.000080   0.000001   0.000004  -0.000043
     5  H   -0.000083  -0.000147   0.000080   0.000004
     6  H   -0.000151   0.000000  -0.000004   0.000019
     7  Si  -0.046114   0.007415  -0.019059  -0.003866
     8  H    0.000068   0.000014  -0.000012  -0.000036
     9  O   -0.002991   0.000000  -0.000416   0.003682
    10  O    0.256580  -0.041487  -0.041485  -0.043496
    11  H    0.001665  -0.000204   0.009225  -0.001900
    12  H    0.000168   0.000012  -0.000041   0.000324
    13  C    4.774518   0.403836   0.417876   0.413345
    14  H    0.403836   0.560749  -0.028975  -0.032324
    15  H    0.417876  -0.028975   0.592281  -0.049190
    16  H    0.413345  -0.032324  -0.049190   0.588359
 Mulliken atomic charges:
              1
     1  H    0.129281
     2  C   -0.394405
     3  C   -0.306119
     4  H    0.090102
     5  H    0.142290
     6  H    0.117282
     7  Si   0.550264
     8  H    0.102724
     9  O   -0.525641
    10  O   -0.332342
    11  H   -0.046131
    12  H    0.318661
    13  C   -0.221566
    14  H    0.131412
    15  H    0.119725
    16  H    0.124460
 Sum of Mulliken atomic charges =   0.00000
 Mulliken charges with hydrogens summed into heavy atoms:
              1
     2  C   -0.032732
     3  C   -0.086112
     7  Si   0.504134
     9  O   -0.206979
    10  O   -0.332342
    13  C    0.154032
 Sum of Mulliken charges with hydrogens summed into heavy atoms =   0.00000
 Electronic spatial extent (au):  <R**2>=            859.7008
 Charge=              0.0000 electrons
 Dipole moment (field-independent basis, Debye):
    X=              0.5312    Y=             -0.5902    Z=             -0.5965  Tot=              0.9932
 Quadrupole moment (field-independent basis, Debye-Ang):
   XX=            -40.4082   YY=            -49.7209   ZZ=            -43.2613
   XY=             -0.3506   XZ=              0.6137   YZ=             -0.3987
 Traceless Quadrupole moment (field-independent basis, Debye-Ang):
   XX=              4.0553   YY=             -5.2575   ZZ=              1.2022
   XY=             -0.3506   XZ=              0.6137   YZ=             -0.3987
 Octapole moment (field-independent basis, Debye-Ang**2):
  XXX=             15.5312  YYY=             -7.1101  ZZZ=             -9.1274  XYY=              1.8849
  XXY=             -0.0265  XXZ=             -3.8123  XZZ=             -0.6221  YZZ=              3.6129
  YYZ=             -0.8403  XYZ=              2.1379
 Hexadecapole moment (field-independent basis, Debye-Ang**3):
 XXXX=           -702.4754 YYYY=           -280.8367 ZZZZ=           -166.3380 XXXY=            -16.6188
 XXXZ=             -4.4319 YYYX=             -9.0280 YYYZ=             -1.0011 ZZZX=              3.1058
 ZZZY=            -14.8837 XXYY=           -159.8931 XXZZ=           -149.5719 YYZZ=            -69.0443
 XXYZ=             -2.5171 YYXZ=             -0.8271 ZZXY=             -8.7645
 N-N= 3.309596813919D+02 E-N=-1.985891710965D+03  KE= 5.582611595283D+02
 1\1\GINC-TARSUS4\SP\RPBE1PBE\def2TZVP\C3H10O2Si1\RENATO\08-Aug-2018\0\
 \#SP PBE1PBE/Def2TZVP geom=connectivity\\Structure: 20\\0,1\H,0,0.,0.,
 0.\C,0,1.093,0.,0.\C,0,1.655,1.421,0.\H,0,1.41,-0.56,-0.885\H,0,1.424,
 -0.557,0.88\H,0,1.308,1.969,-0.883\Si,0,3.513,1.515,0.035\H,0,1.282,1.
 975,0.868\O,0,3.783,0.694,-1.369\O,0,3.968,0.824,1.454\H,0,4.029,2.906
 ,-0.04\H,0,3.385,-0.173,-1.458\C,0,5.301,0.766,1.905\H,0,5.308,0.322,2
 .902\H,0,5.747,1.766,1.967\H,0,5.921,0.153,1.244\\Version=EM64L-G09Rev
 C.01\State=1-A\HF=-560.0504977\RMSD=9.866e-09\Dipole=0.1201246,-0.2628
 635,0.2629595\Quadrupole=1.2633267,0.6054609,-1.8687876,-0.1232777,2.8
 477647,1.4475633\PG=C01 [X(C3H10O2Si1)]\\@


 "ANNA, YOU MUSN'T SPEAK OF OXIDIZED MURIATIC ACID
 ANYMORE, FROM NOW ON YOU MUST SAY CHLORINE."
   -- JENS JACOB BERZELIUS, IN 1820, TO HIS COOK, WHO HAD
 COMPLAINED OF THE SMELL OF THE FLASK SHE WAS CLEANING.
 Job cpu time:  0 days  0 hours 12 minutes 56.5 seconds.
 File lengths (MBytes):  RWF=     40 Int=      0 D2E=      0 Chk=      3 Scr=      1
 Normal termination of Gaussian 09 at Wed Aug  8 13:26:23 2018.
