 Entering Gaussian System, Link 0=g09
 Initial command:
 /usr/local/gaussian09/g09/l1.exe /scratch/renato/Gau-7163.inp -scrdir=/scratch/renato/
 Entering Link 1 = /usr/local/gaussian09/g09/l1.exe PID=      7165.
  
 Copyright (c) 1988,1990,1992,1993,1995,1998,2003,2009,2011,
            Gaussian, Inc.  All Rights Reserved.
  
 This is part of the Gaussian(R) 09 program.  It is based on
 the Gaussian(R) 03 system (copyright 2003, Gaussian, Inc.),
 the Gaussian(R) 98 system (copyright 1998, Gaussian, Inc.),
 the Gaussian(R) 94 system (copyright 1995, Gaussian, Inc.),
 the Gaussian 92(TM) system (copyright 1992, Gaussian, Inc.),
 the Gaussian 90(TM) system (copyright 1990, Gaussian, Inc.),
 the Gaussian 88(TM) system (copyright 1988, Gaussian, Inc.),
 the Gaussian 86(TM) system (copyright 1986, Carnegie Mellon
 University), and the Gaussian 82(TM) system (copyright 1983,
 Carnegie Mellon University). Gaussian is a federally registered
 trademark of Gaussian, Inc.
  
 This software contains proprietary and confidential information,
 including trade secrets, belonging to Gaussian, Inc.
  
 This software is provided under written license and may be
 used, copied, transmitted, or stored only in accord with that
 written license.
  
 The following legend is applicable only to US Government
 contracts under FAR:
  
                    RESTRICTED RIGHTS LEGEND
  
 Use, reproduction and disclosure by the US Government is
 subject to restrictions as set forth in subparagraphs (a)
 and (c) of the Commercial Computer Software - Restricted
 Rights clause in FAR 52.227-19.
  
 Gaussian, Inc.
 340 Quinnipiac St., Bldg. 40, Wallingford CT 06492
  
  
 ---------------------------------------------------------------
 Warning -- This program may not be used in any manner that
 competes with the business of Gaussian, Inc. or will provide
 assistance to any competitor of Gaussian, Inc.  The licensee
 of this program is prohibited from giving any competitor of
 Gaussian, Inc. access to this program.  By using this program,
 the user acknowledges that Gaussian, Inc. is engaged in the
 business of creating and licensing software in the field of
 computational chemistry and represents and warrants to the
 licensee that it is not a competitor of Gaussian, Inc. and that
 it will not use this program in any manner prohibited above.
 ---------------------------------------------------------------
  

 Cite this work as:
 Gaussian 09, Revision C.01,
 M. J. Frisch, G. W. Trucks, H. B. Schlegel, G. E. Scuseria, 
 M. A. Robb, J. R. Cheeseman, G. Scalmani, V. Barone, B. Mennucci, 
 G. A. Petersson, H. Nakatsuji, M. Caricato, X. Li, H. P. Hratchian, 
 A. F. Izmaylov, J. Bloino, G. Zheng, J. L. Sonnenberg, M. Hada, 
 M. Ehara, K. Toyota, R. Fukuda, J. Hasegawa, M. Ishida, T. Nakajima, 
 Y. Honda, O. Kitao, H. Nakai, T. Vreven, J. A. Montgomery, Jr., 
 J. E. Peralta, F. Ogliaro, M. Bearpark, J. J. Heyd, E. Brothers, 
 K. N. Kudin, V. N. Staroverov, T. Keith, R. Kobayashi, J. Normand, 
 K. Raghavachari, A. Rendell, J. C. Burant, S. S. Iyengar, J. Tomasi, 
 M. Cossi, N. Rega, J. M. Millam, M. Klene, J. E. Knox, J. B. Cross, 
 V. Bakken, C. Adamo, J. Jaramillo, R. Gomperts, R. E. Stratmann, 
 O. Yazyev, A. J. Austin, R. Cammi, C. Pomelli, J. W. Ochterski, 
 R. L. Martin, K. Morokuma, V. G. Zakrzewski, G. A. Voth, 
 P. Salvador, J. J. Dannenberg, S. Dapprich, A. D. Daniels, 
 O. Farkas, J. B. Foresman, J. V. Ortiz, J. Cioslowski, 
 and D. J. Fox, Gaussian, Inc., Wallingford CT, 2010.
 
 ******************************************
 Gaussian 09:  EM64L-G09RevC.01 23-Sep-2011
                 8-Aug-2018 
 ******************************************
 %nproc=2
 Will use up to    2 processors via shared memory.
 %mem=256MB
 %RWF=a13.rwf
 %chk=a1338
 %NoSave
 --------------------------------------
 #SP PBE1PBE/Def2TZVP geom=connectivity
 --------------------------------------
 1/38=1,57=2/1;
 2/12=2,17=6,18=5,40=1/2;
 3/5=44,7=101,11=2,16=1,25=1,30=1,74=-13/1,2,3;
 4//1;
 5/5=2,38=5/2;
 6/7=2,8=2,9=2,10=2,28=1/1;
 99/5=1,9=1/99;
 -------------
 Structure: 38
 -------------
 Charge =  0 Multiplicity = 1
 Symbolic Z-Matrix:
 H                     0.        0.        0. 
 C                     1.093     0.        0. 
 C                     1.655     1.421     0. 
 H                     1.41     -0.56     -0.885 
 H                     1.424    -0.557     0.88 
 H                     1.308     1.969    -0.883 
 Si                    3.513     1.515     0.035 
 H                     1.282     1.975     0.868 
 O                     3.951     0.718    -1.34 
 O                     3.968     0.824     1.454 
 H                     4.029     2.906    -0.04 
 H                     3.61     -0.168    -1.466 
 C                     5.301     0.766     1.905 
 H                     5.308     0.322     2.902 
 H                     5.747     1.766     1.967 
 H                     5.921     0.153     1.244 
 
                          Input orientation:                          
 ---------------------------------------------------------------------
 Center     Atomic      Atomic             Coordinates (Angstroms)
 Number     Number       Type             X           Y           Z
 ---------------------------------------------------------------------
      1          1           0        0.000000    0.000000    0.000000
      2          6           0        1.093000    0.000000    0.000000
      3          6           0        1.655000    1.421000    0.000000
      4          1           0        1.410000   -0.560000   -0.885000
      5          1           0        1.424000   -0.557000    0.880000
      6          1           0        1.308000    1.969000   -0.883000
      7         14           0        3.513000    1.515000    0.035000
      8          1           0        1.282000    1.975000    0.868000
      9          8           0        3.951000    0.718000   -1.340000
     10          8           0        3.968000    0.824000    1.454000
     11          1           0        4.029000    2.906000   -0.040000
     12          1           0        3.610000   -0.168000   -1.466000
     13          6           0        5.301000    0.766000    1.905000
     14          1           0        5.308000    0.322000    2.902000
     15          1           0        5.747000    1.766000    1.967000
     16          1           0        5.921000    0.153000    1.244000
 ---------------------------------------------------------------------
                    Distance matrix (angstroms):
                    1          2          3          4          5
     1  H    0.000000
     2  C    1.093000   0.000000
     3  C    2.181345   1.528098   0.000000
     4  H    1.756395   1.094218   2.183486   0.000000
     5  H    1.764207   1.092799   2.177210   1.765058   0.000000
     6  H    2.523393   2.168611   1.095629   2.531057   3.082580
     7  Si   3.825914   2.855320   1.860706   3.094291   3.061230
     8  H    2.509497   2.165588   1.095203   3.084740   2.536007
     9  O    4.233382   3.237173   2.749805   2.880450   3.597187
    10  O    4.305591   3.325465   2.796515   3.732257   2.951029
    11  H    4.967824   4.131166   2.800482   4.425646   4.429988
    12  H    3.899933   2.917648   2.914807   2.308945   3.230113
    13  C    5.684750   4.682205   4.165497   4.968124   4.222805
    14  H    6.058065   5.127525   4.793101   5.505788   4.466160
    15  H    6.325809   5.352342   4.553304   5.688036   5.026552
    16  H    6.052205   4.988039   4.621051   5.038862   4.567232
                    6          7          8          9         10
     6  H    0.000000
     7  Si   2.431227   0.000000
     8  H    1.751203   2.425459   0.000000
     9  O    2.959611   1.648538   3.684952   0.000000
    10  O    3.721316   1.642579   2.980401   2.796062   0.000000
    11  H    2.998743   1.485517   3.039282   2.546258   2.563295
    12  H    3.194661   2.257188   3.931868   0.957681   3.104614
    13  C    5.016393   2.693482   4.323125   3.514944   1.408423
    14  H    5.747942   3.586776   4.803982   4.471334   2.035757
    15  H    5.279056   2.964183   4.603011   3.906427   2.077348
    16  H    5.394604   3.019137   4.998138   3.298057   2.075705
                   11         12         13         14         15
    11  H    0.000000
    12  H    3.414456   0.000000
    13  C    3.159210   3.885290   0.000000
    14  H    4.119255   4.711977   1.091418   0.000000
    15  H    2.877355   4.482479   1.096704   1.775410   0.000000
    16  H    3.578733   3.576012   1.094116   1.775752   1.776168
                   16
    16  H    0.000000
 Stoichiometry    C3H10O2Si
 Framework group  C1[X(C3H10O2Si)]
 Deg. of freedom    42
 Full point group                 C1      NOp   1
 Largest Abelian subgroup         C1      NOp   1
 Largest concise Abelian subgroup C1      NOp   1
                         Standard orientation:                         
 ---------------------------------------------------------------------
 Center     Atomic      Atomic             Coordinates (Angstroms)
 Number     Number       Type             X           Y           Z
 ---------------------------------------------------------------------
      1          1           0       -3.132919   -1.338862   -0.440461
      2          6           0       -2.161273   -0.869118   -0.613359
      3          6           0       -1.552922   -0.341758    0.685443
      4          1           0       -2.321923   -0.066502   -1.339522
      5          1           0       -1.512311   -1.613517   -1.081256
      6          1           0       -2.218151    0.396595    1.146644
      7         14           0        0.121784    0.444863    0.488436
      8          1           0       -1.450189   -1.154684    1.412124
      9          8           0       -0.170684    1.683131   -0.559815
     10          8           0        1.114095   -0.747650   -0.051284
     11          1           0        0.653082    1.012438    1.754273
     12          1           0       -0.598521    1.469275   -1.389498
     13          6           0        2.498292   -0.583418   -0.252977
     14          1           0        2.920704   -1.547324   -0.542197
     15          1           0        2.999298   -0.245169    0.662086
     16          1           0        2.704085    0.141584   -1.046143
 ---------------------------------------------------------------------
 Rotational constants (GHZ):      4.1458858      1.8916368      1.5938818
 Standard basis: def2TZVP (5D, 7F)
 There are   252 symmetry adapted basis functions of A   symmetry.
 Integral buffers will be    131072 words long.
 Raffenetti 2 integral format.
 Two-electron integral symmetry is turned on.
   252 basis functions,   404 primitive gaussians,   282 cartesian basis functions
    29 alpha electrons       29 beta electrons
       nuclear repulsion energy       330.2660504024 Hartrees.
 NAtoms=   16 NActive=   16 NUniq=   16 SFac= 1.00D+00 NAtFMM=   60 NAOKFM=F Big=F
 One-electron integrals computed using PRISM.
   1 Symmetry operations used in ECPInt.
 ECPInt:  NShTT=    5886 NPrTT=   17754 LenC2=    5780 LenP2D=   13929.
 LDataN:  DoStor=T MaxTD1= 6 Len=  172
 NBasis=   252 RedAO= T  NBF=   252
 NBsUse=   252 1.00D-06 NBFU=   252
 Harris functional with IExCor= 1009 diagonalized for initial guess.
 ExpMin= 7.01D-02 ExpMax= 4.48D+04 ExpMxC= 1.53D+03 IAcc=2 IRadAn=         4 AccDes= 0.00D+00
 HarFok:  IExCor= 1009 AccDes= 0.00D+00 IRadAn=         4 IDoV= 1
 ScaDFX=  1.000000  1.000000  1.000000  1.000000
 FoFCou: FMM=F IPFlag=           0 FMFlag=      100000 FMFlg1=           0
         NFxFlg=           0 DoJE=T BraDBF=F KetDBF=T FulRan=T
         Omega=  0.000000  0.000000  1.000000  0.000000  0.000000 ICntrl=     500 IOpCl=  0
         NMat0=    1 NMatS0=    1 NMatT0=    0 NMatD0=    1 NMtDS0=    0 NMtDT0=    0
         I1Cent=           4 NGrid=           0.
 Petite list used in FoFCou.
 Initial guess orbital symmetries:
       Occupied  (A) (A) (A) (A) (A) (A) (A) (A) (A) (A) (A) (A)
                 (A) (A) (A) (A) (A) (A) (A) (A) (A) (A) (A) (A)
                 (A) (A) (A) (A) (A)
       Virtual   (A) (A) (A) (A) (A) (A) (A) (A) (A) (A) (A) (A)
                 (A) (A) (A) (A) (A) (A) (A) (A) (A) (A) (A) (A)
                 (A) (A) (A) (A) (A) (A) (A) (A) (A) (A) (A) (A)
                 (A) (A) (A) (A) (A) (A) (A) (A) (A) (A) (A) (A)
                 (A) (A) (A) (A) (A) (A) (A) (A) (A) (A) (A) (A)
                 (A) (A) (A) (A) (A) (A) (A) (A) (A) (A) (A) (A)
                 (A) (A) (A) (A) (A) (A) (A) (A) (A) (A) (A) (A)
                 (A) (A) (A) (A) (A) (A) (A) (A) (A) (A) (A) (A)
                 (A) (A) (A) (A) (A) (A) (A) (A) (A) (A) (A) (A)
                 (A) (A) (A) (A) (A) (A) (A) (A) (A) (A) (A) (A)
                 (A) (A) (A) (A) (A) (A) (A) (A) (A) (A) (A) (A)
                 (A) (A) (A) (A) (A) (A) (A) (A) (A) (A) (A) (A)
                 (A) (A) (A) (A) (A) (A) (A) (A) (A) (A) (A) (A)
                 (A) (A) (A) (A) (A) (A) (A) (A) (A) (A) (A) (A)
                 (A) (A) (A) (A) (A) (A) (A) (A) (A) (A) (A) (A)
                 (A) (A) (A) (A) (A) (A) (A) (A) (A) (A) (A) (A)
                 (A) (A) (A) (A) (A) (A) (A) (A) (A) (A) (A) (A)
                 (A) (A) (A) (A) (A) (A) (A) (A) (A) (A) (A) (A)
                 (A) (A) (A) (A) (A) (A) (A)
 The electronic state of the initial guess is 1-A.
 Requested convergence on RMS density matrix=1.00D-08 within 128 cycles.
 Requested convergence on MAX density matrix=1.00D-06.
 Requested convergence on             energy=1.00D-06.
 No special actions if energy rises.
 Integral accuracy reduced to 1.0D-05 until final iterations.
 Initial convergence to 1.0D-05 achieved.  Increase integral accuracy.
 SCF Done:  E(RPBE1PBE) =  -560.057331009     A.U. after   12 cycles
             Convg  =    0.8294D-08             -V/T =  2.0032

 **********************************************************************

            Population analysis using the SCF density.

 **********************************************************************

 Orbital symmetries:
       Occupied  (A) (A) (A) (A) (A) (A) (A) (A) (A) (A) (A) (A)
                 (A) (A) (A) (A) (A) (A) (A) (A) (A) (A) (A) (A)
                 (A) (A) (A) (A) (A)
       Virtual   (A) (A) (A) (A) (A) (A) (A) (A) (A) (A) (A) (A)
                 (A) (A) (A) (A) (A) (A) (A) (A) (A) (A) (A) (A)
                 (A) (A) (A) (A) (A) (A) (A) (A) (A) (A) (A) (A)
                 (A) (A) (A) (A) (A) (A) (A) (A) (A) (A) (A) (A)
                 (A) (A) (A) (A) (A) (A) (A) (A) (A) (A) (A) (A)
                 (A) (A) (A) (A) (A) (A) (A) (A) (A) (A) (A) (A)
                 (A) (A) (A) (A) (A) (A) (A) (A) (A) (A) (A) (A)
                 (A) (A) (A) (A) (A) (A) (A) (A) (A) (A) (A) (A)
                 (A) (A) (A) (A) (A) (A) (A) (A) (A) (A) (A) (A)
                 (A) (A) (A) (A) (A) (A) (A) (A) (A) (A) (A) (A)
                 (A) (A) (A) (A) (A) (A) (A) (A) (A) (A) (A) (A)
                 (A) (A) (A) (A) (A) (A) (A) (A) (A) (A) (A) (A)
                 (A) (A) (A) (A) (A) (A) (A) (A) (A) (A) (A) (A)
                 (A) (A) (A) (A) (A) (A) (A) (A) (A) (A) (A) (A)
                 (A) (A) (A) (A) (A) (A) (A) (A) (A) (A) (A) (A)
                 (A) (A) (A) (A) (A) (A) (A) (A) (A) (A) (A) (A)
                 (A) (A) (A) (A) (A) (A) (A) (A) (A) (A) (A) (A)
                 (A) (A) (A) (A) (A) (A) (A) (A) (A) (A) (A) (A)
                 (A) (A) (A) (A) (A) (A) (A)
 The electronic state is 1-A.
 Alpha  occ. eigenvalues --  -66.25539 -19.20555 -19.19971 -10.26815 -10.21547
 Alpha  occ. eigenvalues --  -10.20115  -5.33192  -3.66709  -3.66627  -3.66452
 Alpha  occ. eigenvalues --   -1.04696  -1.02346  -0.77799  -0.70873  -0.63758
 Alpha  occ. eigenvalues --   -0.56574  -0.51508  -0.47190  -0.46888  -0.45800
 Alpha  occ. eigenvalues --   -0.43531  -0.41138  -0.38710  -0.37244  -0.36492
 Alpha  occ. eigenvalues --   -0.35366  -0.32277  -0.30616  -0.29209
 Alpha virt. eigenvalues --    0.02355   0.05242   0.05923   0.08032   0.09008
 Alpha virt. eigenvalues --    0.09802   0.11096   0.11388   0.12016   0.13262
 Alpha virt. eigenvalues --    0.13606   0.15145   0.16513   0.17687   0.19688
 Alpha virt. eigenvalues --    0.21446   0.22257   0.23042   0.25024   0.25361
 Alpha virt. eigenvalues --    0.26692   0.27916   0.28811   0.29676   0.31193
 Alpha virt. eigenvalues --    0.32673   0.35972   0.38667   0.40103   0.40825
 Alpha virt. eigenvalues --    0.41955   0.42681   0.43763   0.45401   0.45669
 Alpha virt. eigenvalues --    0.46186   0.47319   0.47996   0.49138   0.50334
 Alpha virt. eigenvalues --    0.51511   0.53740   0.55542   0.57623   0.59563
 Alpha virt. eigenvalues --    0.61053   0.64217   0.66255   0.66821   0.67574
 Alpha virt. eigenvalues --    0.73181   0.73537   0.75706   0.78958   0.79958
 Alpha virt. eigenvalues --    0.83251   0.83700   0.86368   0.88698   0.91593
 Alpha virt. eigenvalues --    0.93393   0.95420   0.97289   0.99674   0.99926
 Alpha virt. eigenvalues --    1.04264   1.06353   1.07102   1.09654   1.11928
 Alpha virt. eigenvalues --    1.13001   1.13827   1.16752   1.18580   1.20538
 Alpha virt. eigenvalues --    1.24174   1.30688   1.32539   1.36789   1.40407
 Alpha virt. eigenvalues --    1.42650   1.46069   1.47522   1.49523   1.51778
 Alpha virt. eigenvalues --    1.52559   1.54175   1.55066   1.57064   1.58387
 Alpha virt. eigenvalues --    1.59684   1.62669   1.63872   1.64512   1.66240
 Alpha virt. eigenvalues --    1.69406   1.71763   1.75670   1.77889   1.78519
 Alpha virt. eigenvalues --    1.81567   1.82877   1.86270   1.87316   1.92734
 Alpha virt. eigenvalues --    1.95375   1.96394   1.98342   2.01128   2.03848
 Alpha virt. eigenvalues --    2.05669   2.08981   2.12022   2.12636   2.14308
 Alpha virt. eigenvalues --    2.17887   2.20841   2.26341   2.27259   2.30627
 Alpha virt. eigenvalues --    2.32031   2.33223   2.34090   2.34846   2.35969
 Alpha virt. eigenvalues --    2.36803   2.40065   2.44063   2.47384   2.50083
 Alpha virt. eigenvalues --    2.51021   2.52218   2.54641   2.55955   2.58188
 Alpha virt. eigenvalues --    2.60055   2.61241   2.65724   2.68762   2.71500
 Alpha virt. eigenvalues --    2.72912   2.78262   2.80517   2.82694   2.84763
 Alpha virt. eigenvalues --    2.85286   2.93916   2.95162   2.98502   3.01638
 Alpha virt. eigenvalues --    3.05269   3.10112   3.10526   3.11761   3.15229
 Alpha virt. eigenvalues --    3.21712   3.22785   3.24317   3.28020   3.30165
 Alpha virt. eigenvalues --    3.32200   3.32670   3.37743   3.40705   3.44377
 Alpha virt. eigenvalues --    3.45139   3.46111   3.47592   3.53229   3.54617
 Alpha virt. eigenvalues --    3.57822   3.61172   3.63616   3.65440   3.77050
 Alpha virt. eigenvalues --    3.81747   3.89208   3.93404   3.96321   4.03244
 Alpha virt. eigenvalues --    4.18549   4.24313   4.24851   4.34524   4.36482
 Alpha virt. eigenvalues --    4.42040   4.47481   4.53641   4.57317   4.79298
 Alpha virt. eigenvalues --    5.16066   5.17212   5.17376   5.18589   5.27751
 Alpha virt. eigenvalues --    5.28962   5.38455   5.41730   5.45757   5.50628
 Alpha virt. eigenvalues --    5.79651   5.85921   6.03077   6.23381   6.42647
 Alpha virt. eigenvalues --    6.44680   6.55147   6.58742   6.60376   6.64235
 Alpha virt. eigenvalues --    6.67108   6.77408   6.82447   6.95905   7.06374
 Alpha virt. eigenvalues --    7.16308   7.25490  11.94418  22.37262  22.41137
 Alpha virt. eigenvalues --   22.46124  43.63508  43.94801
          Condensed to atoms (all electrons):
              1          2          3          4          5          6
     1  H    0.549323   0.407369  -0.032602  -0.024007  -0.024340  -0.006900
     2  C    0.407369   4.947885   0.309892   0.399095   0.411910  -0.027862
     3  C   -0.032602   0.309892   5.024844  -0.046209  -0.039736   0.387563
     4  H   -0.024007   0.399095  -0.046209   0.598106  -0.029043  -0.005337
     5  H   -0.024340   0.411910  -0.039736  -0.029043   0.536345   0.007805
     6  H   -0.006900  -0.027862   0.387563  -0.005337   0.007805   0.581423
     7  Si   0.008224  -0.019055   0.444174  -0.009666  -0.008087  -0.028857
     8  H   -0.006761  -0.027520   0.364869   0.009818  -0.004066  -0.027131
     9  O    0.000210  -0.004583  -0.043568   0.006138  -0.000568  -0.002134
    10  O    0.000023  -0.005208  -0.030952   0.000826   0.007420   0.001278
    11  H   -0.000091   0.001745  -0.033492   0.000196   0.000411   0.001312
    12  H   -0.000123   0.001632  -0.002475   0.003391  -0.000034   0.000133
    13  C    0.000012  -0.000150   0.002613   0.000089  -0.000080  -0.000141
    14  H   -0.000004   0.000209  -0.000476  -0.000001  -0.000154   0.000000
    15  H    0.000001  -0.000046   0.000002   0.000002   0.000081  -0.000001
    16  H    0.000000  -0.000067   0.000761  -0.000032   0.000007   0.000017
              7          8          9         10         11         12
     1  H    0.008224  -0.006761   0.000210   0.000023  -0.000091  -0.000123
     2  C   -0.019055  -0.027520  -0.004583  -0.005208   0.001745   0.001632
     3  C    0.444174   0.364869  -0.043568  -0.030952  -0.033492  -0.002475
     4  H   -0.009666   0.009818   0.006138   0.000826   0.000196   0.003391
     5  H   -0.008087  -0.004066  -0.000568   0.007420   0.000411  -0.000034
     6  H   -0.028857  -0.027131  -0.002134   0.001278   0.001312   0.000133
     7  Si  11.890385  -0.021571   0.452491   0.443657   0.392284  -0.028302
     8  H   -0.021571   0.596491   0.003439   0.002485   0.001121  -0.000069
     9  O    0.452491   0.003439   7.855214  -0.030538  -0.011891   0.304539
    10  O    0.443657   0.002485  -0.030538   7.840765  -0.025521  -0.001248
    11  H    0.392284   0.001121  -0.011891  -0.025521   0.714836   0.003138
    12  H   -0.028302  -0.000069   0.304539  -0.001248   0.003138   0.398542
    13  C   -0.047329   0.000076  -0.004113   0.258650   0.001923   0.000349
    14  H    0.007562   0.000007   0.000023  -0.041461  -0.000207   0.000015
    15  H   -0.018646  -0.000015  -0.000445  -0.041913   0.009582  -0.000039
    16  H   -0.004130  -0.000028   0.004653  -0.043582  -0.001951   0.000317
             13         14         15         16
     1  H    0.000012  -0.000004   0.000001   0.000000
     2  C   -0.000150   0.000209  -0.000046  -0.000067
     3  C    0.002613  -0.000476   0.000002   0.000761
     4  H    0.000089  -0.000001   0.000002  -0.000032
     5  H   -0.000080  -0.000154   0.000081   0.000007
     6  H   -0.000141   0.000000  -0.000001   0.000017
     7  Si  -0.047329   0.007562  -0.018646  -0.004130
     8  H    0.000076   0.000007  -0.000015  -0.000028
     9  O   -0.004113   0.000023  -0.000445   0.004653
    10  O    0.258650  -0.041461  -0.041913  -0.043582
    11  H    0.001923  -0.000207   0.009582  -0.001951
    12  H    0.000349   0.000015  -0.000039   0.000317
    13  C    4.772142   0.403317   0.417953   0.413104
    14  H    0.403317   0.563025  -0.029457  -0.032788
    15  H    0.417953  -0.029457   0.592729  -0.048750
    16  H    0.413104  -0.032788  -0.048750   0.589229
 Mulliken atomic charges:
              1
     1  H    0.129667
     2  C   -0.395246
     3  C   -0.305209
     4  H    0.096634
     5  H    0.142129
     6  H    0.118831
     7  Si   0.546867
     8  H    0.108854
     9  O   -0.528867
    10  O   -0.334681
    11  H   -0.053394
    12  H    0.320236
    13  C   -0.218416
    14  H    0.130391
    15  H    0.118963
    16  H    0.123240
 Sum of Mulliken atomic charges =   0.00000
 Mulliken charges with hydrogens summed into heavy atoms:
              1
     2  C   -0.026816
     3  C   -0.077524
     7  Si   0.493474
     9  O   -0.208631
    10  O   -0.334681
    13  C    0.154177
 Sum of Mulliken charges with hydrogens summed into heavy atoms =   0.00000
 Electronic spatial extent (au):  <R**2>=            862.6946
 Charge=              0.0000 electrons
 Dipole moment (field-independent basis, Debye):
    X=              0.2144    Y=             -0.6041    Z=             -0.7067  Tot=              0.9541
 Quadrupole moment (field-independent basis, Debye-Ang):
   XX=            -40.6766   YY=            -49.6262   ZZ=            -43.0533
   XY=             -0.9043   XZ=              0.3714   YZ=             -1.0076
 Traceless Quadrupole moment (field-independent basis, Debye-Ang):
   XX=              3.7754   YY=             -5.1742   ZZ=              1.3987
   XY=             -0.9043   XZ=              0.3714   YZ=             -1.0076
 Octapole moment (field-independent basis, Debye-Ang**2):
  XXX=             15.3939  YYY=             -7.0306  ZZZ=             -9.7593  XYY=              0.6237
  XXY=             -0.5672  XXZ=             -2.8069  XZZ=             -0.3218  YZZ=              4.3143
  YYZ=             -1.9467  XYZ=              2.3180
 Hexadecapole moment (field-independent basis, Debye-Ang**3):
 XXXX=           -701.9807 YYYY=           -287.1461 ZZZZ=           -167.2016 XXXY=            -14.9746
 XXXZ=             -5.6634 YYYX=            -10.5438 YYYZ=             -3.4985 ZZZX=              0.9661
 ZZZY=            -16.9485 XXYY=           -160.3522 XXZZ=           -150.1399 YYZZ=            -67.6685
 XXYZ=             -1.8927 YYXZ=             -0.4658 ZZXY=             -7.8995
 N-N= 3.302660504024D+02 E-N=-1.984506144379D+03  KE= 5.582484476873D+02
 1\1\GINC-TARSUS4\SP\RPBE1PBE\def2TZVP\C3H10O2Si1\RENATO\08-Aug-2018\0\
 \#SP PBE1PBE/Def2TZVP geom=connectivity\\Structure: 38\\0,1\H,0,0.,0.,
 0.\C,0,1.093,0.,0.\C,0,1.655,1.421,0.\H,0,1.41,-0.56,-0.885\H,0,1.424,
 -0.557,0.88\H,0,1.308,1.969,-0.883\Si,0,3.513,1.515,0.035\H,0,1.282,1.
 975,0.868\O,0,3.951,0.718,-1.34\O,0,3.968,0.824,1.454\H,0,4.029,2.906,
 -0.04\H,0,3.61,-0.168,-1.466\C,0,5.301,0.766,1.905\H,0,5.308,0.322,2.9
 02\H,0,5.747,1.766,1.967\H,0,5.921,0.153,1.244\\Version=EM64L-G09RevC.
 01\State=1-A\HF=-560.057331\RMSD=8.294e-09\Dipole=0.0168237,-0.3128786
 ,0.206732\Quadrupole=1.0441904,0.5788173,-1.6230076,-0.4987746,2.81841
 25,1.6573797\PG=C01 [X(C3H10O2Si1)]\\@


 IT IS THE GODS' CUSTOM TO BRING LOW ALL THINGS OF SURPASSING GREATNESS.
     -- HERODOTUS
 IT IS THE LOFTY PINE THAT BY THE STORM IS OFTENER TOSSED;
 TOWERS FALL WITH HEAVIER CRASH WHICH HIGHER SOAR.
     -- HORACE
 THE BIGGER THEY COME, THE HARDER THEY FALL.
     -- BOB FITZSIMONS HEAVYWEIGHT CHAMPION, 1897-1899
 Job cpu time:  0 days  0 hours 12 minutes 21.8 seconds.
 File lengths (MBytes):  RWF=     40 Int=      0 D2E=      0 Chk=      3 Scr=      1
 Normal termination of Gaussian 09 at Wed Aug  8 15:24:48 2018.
