 Entering Gaussian System, Link 0=g09
 Initial command:
 /usr/local/gaussian09/g09/l1.exe /scratch/renato/Gau-7264.inp -scrdir=/scratch/renato/
 Entering Link 1 = /usr/local/gaussian09/g09/l1.exe PID=      7266.
  
 Copyright (c) 1988,1990,1992,1993,1995,1998,2003,2009,2011,
            Gaussian, Inc.  All Rights Reserved.
  
 This is part of the Gaussian(R) 09 program.  It is based on
 the Gaussian(R) 03 system (copyright 2003, Gaussian, Inc.),
 the Gaussian(R) 98 system (copyright 1998, Gaussian, Inc.),
 the Gaussian(R) 94 system (copyright 1995, Gaussian, Inc.),
 the Gaussian 92(TM) system (copyright 1992, Gaussian, Inc.),
 the Gaussian 90(TM) system (copyright 1990, Gaussian, Inc.),
 the Gaussian 88(TM) system (copyright 1988, Gaussian, Inc.),
 the Gaussian 86(TM) system (copyright 1986, Carnegie Mellon
 University), and the Gaussian 82(TM) system (copyright 1983,
 Carnegie Mellon University). Gaussian is a federally registered
 trademark of Gaussian, Inc.
  
 This software contains proprietary and confidential information,
 including trade secrets, belonging to Gaussian, Inc.
  
 This software is provided under written license and may be
 used, copied, transmitted, or stored only in accord with that
 written license.
  
 The following legend is applicable only to US Government
 contracts under FAR:
  
                    RESTRICTED RIGHTS LEGEND
  
 Use, reproduction and disclosure by the US Government is
 subject to restrictions as set forth in subparagraphs (a)
 and (c) of the Commercial Computer Software - Restricted
 Rights clause in FAR 52.227-19.
  
 Gaussian, Inc.
 340 Quinnipiac St., Bldg. 40, Wallingford CT 06492
  
  
 ---------------------------------------------------------------
 Warning -- This program may not be used in any manner that
 competes with the business of Gaussian, Inc. or will provide
 assistance to any competitor of Gaussian, Inc.  The licensee
 of this program is prohibited from giving any competitor of
 Gaussian, Inc. access to this program.  By using this program,
 the user acknowledges that Gaussian, Inc. is engaged in the
 business of creating and licensing software in the field of
 computational chemistry and represents and warrants to the
 licensee that it is not a competitor of Gaussian, Inc. and that
 it will not use this program in any manner prohibited above.
 ---------------------------------------------------------------
  

 Cite this work as:
 Gaussian 09, Revision C.01,
 M. J. Frisch, G. W. Trucks, H. B. Schlegel, G. E. Scuseria, 
 M. A. Robb, J. R. Cheeseman, G. Scalmani, V. Barone, B. Mennucci, 
 G. A. Petersson, H. Nakatsuji, M. Caricato, X. Li, H. P. Hratchian, 
 A. F. Izmaylov, J. Bloino, G. Zheng, J. L. Sonnenberg, M. Hada, 
 M. Ehara, K. Toyota, R. Fukuda, J. Hasegawa, M. Ishida, T. Nakajima, 
 Y. Honda, O. Kitao, H. Nakai, T. Vreven, J. A. Montgomery, Jr., 
 J. E. Peralta, F. Ogliaro, M. Bearpark, J. J. Heyd, E. Brothers, 
 K. N. Kudin, V. N. Staroverov, T. Keith, R. Kobayashi, J. Normand, 
 K. Raghavachari, A. Rendell, J. C. Burant, S. S. Iyengar, J. Tomasi, 
 M. Cossi, N. Rega, J. M. Millam, M. Klene, J. E. Knox, J. B. Cross, 
 V. Bakken, C. Adamo, J. Jaramillo, R. Gomperts, R. E. Stratmann, 
 O. Yazyev, A. J. Austin, R. Cammi, C. Pomelli, J. W. Ochterski, 
 R. L. Martin, K. Morokuma, V. G. Zakrzewski, G. A. Voth, 
 P. Salvador, J. J. Dannenberg, S. Dapprich, A. D. Daniels, 
 O. Farkas, J. B. Foresman, J. V. Ortiz, J. Cioslowski, 
 and D. J. Fox, Gaussian, Inc., Wallingford CT, 2010.
 
 ******************************************
 Gaussian 09:  EM64L-G09RevC.01 23-Sep-2011
                 8-Aug-2018 
 ******************************************
 %nproc=2
 Will use up to    2 processors via shared memory.
 %mem=256MB
 %RWF=a13.rwf
 %chk=a1339
 %NoSave
 --------------------------------------
 #SP PBE1PBE/Def2TZVP geom=connectivity
 --------------------------------------
 1/38=1,57=2/1;
 2/12=2,17=6,18=5,40=1/2;
 3/5=44,7=101,11=2,16=1,25=1,30=1,74=-13/1,2,3;
 4//1;
 5/5=2,38=5/2;
 6/7=2,8=2,9=2,10=2,28=1/1;
 99/5=1,9=1/99;
 -------------
 Structure: 39
 -------------
 Charge =  0 Multiplicity = 1
 Symbolic Z-Matrix:
 H                     0.        0.        0. 
 C                     1.093     0.        0. 
 C                     1.655     1.421     0. 
 H                     1.41     -0.56     -0.885 
 H                     1.424    -0.557     0.88 
 H                     1.308     1.969    -0.883 
 Si                    3.513     1.515     0.035 
 H                     1.282     1.975     0.868 
 O                     3.96      0.72     -1.338 
 O                     3.968     0.824     1.454 
 H                     4.029     2.906    -0.04 
 H                     3.623    -0.168    -1.465 
 C                     5.301     0.766     1.905 
 H                     5.308     0.322     2.902 
 H                     5.747     1.766     1.967 
 H                     5.921     0.153     1.244 
 
                          Input orientation:                          
 ---------------------------------------------------------------------
 Center     Atomic      Atomic             Coordinates (Angstroms)
 Number     Number       Type             X           Y           Z
 ---------------------------------------------------------------------
      1          1           0        0.000000    0.000000    0.000000
      2          6           0        1.093000    0.000000    0.000000
      3          6           0        1.655000    1.421000    0.000000
      4          1           0        1.410000   -0.560000   -0.885000
      5          1           0        1.424000   -0.557000    0.880000
      6          1           0        1.308000    1.969000   -0.883000
      7         14           0        3.513000    1.515000    0.035000
      8          1           0        1.282000    1.975000    0.868000
      9          8           0        3.960000    0.720000   -1.338000
     10          8           0        3.968000    0.824000    1.454000
     11          1           0        4.029000    2.906000   -0.040000
     12          1           0        3.623000   -0.168000   -1.465000
     13          6           0        5.301000    0.766000    1.905000
     14          1           0        5.308000    0.322000    2.902000
     15          1           0        5.747000    1.766000    1.967000
     16          1           0        5.921000    0.153000    1.244000
 ---------------------------------------------------------------------
                    Distance matrix (angstroms):
                    1          2          3          4          5
     1  H    0.000000
     2  C    1.093000   0.000000
     3  C    2.181345   1.528098   0.000000
     4  H    1.756395   1.094218   2.183486   0.000000
     5  H    1.764207   1.092799   2.177210   1.765058   0.000000
     6  H    2.523393   2.168611   1.095629   2.531057   3.082580
     7  Si   3.825914   2.855320   1.860706   3.094291   3.061230
     8  H    2.509497   2.165588   1.095203   3.084740   2.536007
     9  O    4.241491   3.244739   2.755843   2.888963   3.602992
    10  O    4.305591   3.325465   2.796515   3.732257   2.951029
    11  H    4.967824   4.131166   2.800482   4.425646   4.429988
    12  H    3.911595   2.928370   2.923041   2.321084   3.238201
    13  C    5.684750   4.682205   4.165497   4.968124   4.222805
    14  H    6.058065   5.127525   4.793101   5.505788   4.466160
    15  H    6.325809   5.352342   4.553304   5.688036   5.026552
    16  H    6.052205   4.988039   4.621051   5.038862   4.567232
                    6          7          8          9         10
     6  H    0.000000
     7  Si   2.431227   0.000000
     8  H    1.751203   2.425459   0.000000
     9  O    2.966501   1.648321   3.689600   0.000000
    10  O    3.721316   1.642579   2.980401   2.793948   0.000000
    11  H    2.998743   1.485517   3.039282   2.543258   2.563295
    12  H    3.203860   2.257120   3.938987   0.958249   3.102201
    13  C    5.016393   2.693482   4.323125   3.509622   1.408423
    14  H    5.747942   3.586776   4.803982   4.466890   2.035757
    15  H    5.279056   2.964183   4.603011   3.900065   2.077348
    16  H    5.394604   3.019137   4.998138   3.291464   2.075705
                   11         12         13         14         15
    11  H    0.000000
    12  H    3.412468   0.000000
    13  C    3.159210   3.878781   0.000000
    14  H    4.119255   4.706380   1.091418   0.000000
    15  H    2.877355   4.475529   1.096704   1.775410   0.000000
    16  H    3.578733   3.566865   1.094116   1.775752   1.776168
                   16
    16  H    0.000000
 Stoichiometry    C3H10O2Si
 Framework group  C1[X(C3H10O2Si)]
 Deg. of freedom    42
 Full point group                 C1      NOp   1
 Largest Abelian subgroup         C1      NOp   1
 Largest concise Abelian subgroup C1      NOp   1
                         Standard orientation:                         
 ---------------------------------------------------------------------
 Center     Atomic      Atomic             Coordinates (Angstroms)
 Number     Number       Type             X           Y           Z
 ---------------------------------------------------------------------
      1          1           0       -3.136107   -1.334545   -0.442612
      2          6           0       -2.163691   -0.866151   -0.614847
      3          6           0       -1.555214   -0.340186    0.684461
      4          1           0       -2.322813   -0.063018   -1.340775
      5          1           0       -1.515584   -1.611313   -1.082714
      6          1           0       -2.219594    0.398957    1.145623
      7         14           0        0.120735    0.444069    0.488589
      8          1           0       -1.454026   -1.153544    1.410875
      9          8           0       -0.160350    1.685668   -0.558496
     10          8           0        1.111572   -0.749679   -0.051108
     11          1           0        0.652234    1.010374    1.754910
     12          1           0       -0.585132    1.474953   -1.391203
     13          6           0        2.496106   -0.587387   -0.252054
     14          1           0        2.917255   -1.551794   -0.541442
     15          1           0        2.997153   -0.250226    0.663389
     16          1           0        2.703348    0.137624   -1.044834
 ---------------------------------------------------------------------
 Rotational constants (GHZ):      4.1409899      1.8922498      1.5934801
 Standard basis: def2TZVP (5D, 7F)
 There are   252 symmetry adapted basis functions of A   symmetry.
 Integral buffers will be    131072 words long.
 Raffenetti 2 integral format.
 Two-electron integral symmetry is turned on.
   252 basis functions,   404 primitive gaussians,   282 cartesian basis functions
    29 alpha electrons       29 beta electrons
       nuclear repulsion energy       330.2376119938 Hartrees.
 NAtoms=   16 NActive=   16 NUniq=   16 SFac= 1.00D+00 NAtFMM=   60 NAOKFM=F Big=F
 One-electron integrals computed using PRISM.
   1 Symmetry operations used in ECPInt.
 ECPInt:  NShTT=    5886 NPrTT=   17754 LenC2=    5781 LenP2D=   13927.
 LDataN:  DoStor=T MaxTD1= 6 Len=  172
 NBasis=   252 RedAO= T  NBF=   252
 NBsUse=   252 1.00D-06 NBFU=   252
 Harris functional with IExCor= 1009 diagonalized for initial guess.
 ExpMin= 7.01D-02 ExpMax= 4.48D+04 ExpMxC= 1.53D+03 IAcc=2 IRadAn=         4 AccDes= 0.00D+00
 HarFok:  IExCor= 1009 AccDes= 0.00D+00 IRadAn=         4 IDoV= 1
 ScaDFX=  1.000000  1.000000  1.000000  1.000000
 FoFCou: FMM=F IPFlag=           0 FMFlag=      100000 FMFlg1=           0
         NFxFlg=           0 DoJE=T BraDBF=F KetDBF=T FulRan=T
         Omega=  0.000000  0.000000  1.000000  0.000000  0.000000 ICntrl=     500 IOpCl=  0
         NMat0=    1 NMatS0=    1 NMatT0=    0 NMatD0=    1 NMtDS0=    0 NMtDT0=    0
         I1Cent=           4 NGrid=           0.
 Petite list used in FoFCou.
 Initial guess orbital symmetries:
       Occupied  (A) (A) (A) (A) (A) (A) (A) (A) (A) (A) (A) (A)
                 (A) (A) (A) (A) (A) (A) (A) (A) (A) (A) (A) (A)
                 (A) (A) (A) (A) (A)
       Virtual   (A) (A) (A) (A) (A) (A) (A) (A) (A) (A) (A) (A)
                 (A) (A) (A) (A) (A) (A) (A) (A) (A) (A) (A) (A)
                 (A) (A) (A) (A) (A) (A) (A) (A) (A) (A) (A) (A)
                 (A) (A) (A) (A) (A) (A) (A) (A) (A) (A) (A) (A)
                 (A) (A) (A) (A) (A) (A) (A) (A) (A) (A) (A) (A)
                 (A) (A) (A) (A) (A) (A) (A) (A) (A) (A) (A) (A)
                 (A) (A) (A) (A) (A) (A) (A) (A) (A) (A) (A) (A)
                 (A) (A) (A) (A) (A) (A) (A) (A) (A) (A) (A) (A)
                 (A) (A) (A) (A) (A) (A) (A) (A) (A) (A) (A) (A)
                 (A) (A) (A) (A) (A) (A) (A) (A) (A) (A) (A) (A)
                 (A) (A) (A) (A) (A) (A) (A) (A) (A) (A) (A) (A)
                 (A) (A) (A) (A) (A) (A) (A) (A) (A) (A) (A) (A)
                 (A) (A) (A) (A) (A) (A) (A) (A) (A) (A) (A) (A)
                 (A) (A) (A) (A) (A) (A) (A) (A) (A) (A) (A) (A)
                 (A) (A) (A) (A) (A) (A) (A) (A) (A) (A) (A) (A)
                 (A) (A) (A) (A) (A) (A) (A) (A) (A) (A) (A) (A)
                 (A) (A) (A) (A) (A) (A) (A) (A) (A) (A) (A) (A)
                 (A) (A) (A) (A) (A) (A) (A) (A) (A) (A) (A) (A)
                 (A) (A) (A) (A) (A) (A) (A)
 The electronic state of the initial guess is 1-A.
 Requested convergence on RMS density matrix=1.00D-08 within 128 cycles.
 Requested convergence on MAX density matrix=1.00D-06.
 Requested convergence on             energy=1.00D-06.
 No special actions if energy rises.
 Integral accuracy reduced to 1.0D-05 until final iterations.
 Initial convergence to 1.0D-05 achieved.  Increase integral accuracy.
 SCF Done:  E(RPBE1PBE) =  -560.057599199     A.U. after   12 cycles
             Convg  =    0.8233D-08             -V/T =  2.0032

 **********************************************************************

            Population analysis using the SCF density.

 **********************************************************************

 Orbital symmetries:
       Occupied  (A) (A) (A) (A) (A) (A) (A) (A) (A) (A) (A) (A)
                 (A) (A) (A) (A) (A) (A) (A) (A) (A) (A) (A) (A)
                 (A) (A) (A) (A) (A)
       Virtual   (A) (A) (A) (A) (A) (A) (A) (A) (A) (A) (A) (A)
                 (A) (A) (A) (A) (A) (A) (A) (A) (A) (A) (A) (A)
                 (A) (A) (A) (A) (A) (A) (A) (A) (A) (A) (A) (A)
                 (A) (A) (A) (A) (A) (A) (A) (A) (A) (A) (A) (A)
                 (A) (A) (A) (A) (A) (A) (A) (A) (A) (A) (A) (A)
                 (A) (A) (A) (A) (A) (A) (A) (A) (A) (A) (A) (A)
                 (A) (A) (A) (A) (A) (A) (A) (A) (A) (A) (A) (A)
                 (A) (A) (A) (A) (A) (A) (A) (A) (A) (A) (A) (A)
                 (A) (A) (A) (A) (A) (A) (A) (A) (A) (A) (A) (A)
                 (A) (A) (A) (A) (A) (A) (A) (A) (A) (A) (A) (A)
                 (A) (A) (A) (A) (A) (A) (A) (A) (A) (A) (A) (A)
                 (A) (A) (A) (A) (A) (A) (A) (A) (A) (A) (A) (A)
                 (A) (A) (A) (A) (A) (A) (A) (A) (A) (A) (A) (A)
                 (A) (A) (A) (A) (A) (A) (A) (A) (A) (A) (A) (A)
                 (A) (A) (A) (A) (A) (A) (A) (A) (A) (A) (A) (A)
                 (A) (A) (A) (A) (A) (A) (A) (A) (A) (A) (A) (A)
                 (A) (A) (A) (A) (A) (A) (A) (A) (A) (A) (A) (A)
                 (A) (A) (A) (A) (A) (A) (A) (A) (A) (A) (A) (A)
                 (A) (A) (A) (A) (A) (A) (A)
 The electronic state is 1-A.
 Alpha  occ. eigenvalues --  -66.25529 -19.20538 -19.19992 -10.26804 -10.21552
 Alpha  occ. eigenvalues --  -10.20138  -5.33183  -3.66699  -3.66617  -3.66443
 Alpha  occ. eigenvalues --   -1.04686  -1.02343  -0.77811  -0.70862  -0.63766
 Alpha  occ. eigenvalues --   -0.56573  -0.51497  -0.47178  -0.46879  -0.45802
 Alpha  occ. eigenvalues --   -0.43532  -0.41127  -0.38729  -0.37244  -0.36496
 Alpha  occ. eigenvalues --   -0.35379  -0.32266  -0.30606  -0.29234
 Alpha virt. eigenvalues --    0.02355   0.05255   0.05930   0.08034   0.09005
 Alpha virt. eigenvalues --    0.09819   0.11101   0.11372   0.12025   0.13276
 Alpha virt. eigenvalues --    0.13607   0.15147   0.16505   0.17656   0.19669
 Alpha virt. eigenvalues --    0.21437   0.22251   0.23058   0.25020   0.25345
 Alpha virt. eigenvalues --    0.26689   0.27957   0.28819   0.29660   0.31198
 Alpha virt. eigenvalues --    0.32651   0.36000   0.38683   0.40094   0.40815
 Alpha virt. eigenvalues --    0.41953   0.42675   0.43768   0.45401   0.45674
 Alpha virt. eigenvalues --    0.46170   0.47324   0.47988   0.49171   0.50338
 Alpha virt. eigenvalues --    0.51510   0.53713   0.55516   0.57595   0.59608
 Alpha virt. eigenvalues --    0.61035   0.64169   0.66247   0.66813   0.67530
 Alpha virt. eigenvalues --    0.73214   0.73557   0.75686   0.78932   0.80021
 Alpha virt. eigenvalues --    0.83264   0.83674   0.86369   0.88656   0.91605
 Alpha virt. eigenvalues --    0.93379   0.95423   0.97279   0.99673   0.99955
 Alpha virt. eigenvalues --    1.04270   1.06387   1.07141   1.09631   1.11946
 Alpha virt. eigenvalues --    1.12981   1.13793   1.16703   1.18597   1.20574
 Alpha virt. eigenvalues --    1.24169   1.30577   1.32553   1.36767   1.40438
 Alpha virt. eigenvalues --    1.42627   1.46088   1.47542   1.49532   1.51814
 Alpha virt. eigenvalues --    1.52577   1.54193   1.55078   1.57045   1.58380
 Alpha virt. eigenvalues --    1.59645   1.62685   1.63841   1.64498   1.66232
 Alpha virt. eigenvalues --    1.69401   1.71738   1.75682   1.77929   1.78528
 Alpha virt. eigenvalues --    1.81546   1.82896   1.86212   1.87371   1.92688
 Alpha virt. eigenvalues --    1.95385   1.96360   1.98439   2.01112   2.03867
 Alpha virt. eigenvalues --    2.05655   2.08951   2.12008   2.12610   2.14320
 Alpha virt. eigenvalues --    2.17895   2.20756   2.26363   2.27280   2.30615
 Alpha virt. eigenvalues --    2.32033   2.33221   2.34086   2.34846   2.35958
 Alpha virt. eigenvalues --    2.36764   2.40066   2.44045   2.47391   2.50053
 Alpha virt. eigenvalues --    2.51048   2.52163   2.54629   2.55962   2.58182
 Alpha virt. eigenvalues --    2.60055   2.61219   2.65707   2.68718   2.71450
 Alpha virt. eigenvalues --    2.72899   2.78203   2.80478   2.82699   2.84779
 Alpha virt. eigenvalues --    2.85293   2.93909   2.95088   2.98572   3.01616
 Alpha virt. eigenvalues --    3.05302   3.10091   3.10509   3.11755   3.15228
 Alpha virt. eigenvalues --    3.21707   3.22776   3.24282   3.27983   3.30158
 Alpha virt. eigenvalues --    3.32185   3.32664   3.37746   3.40692   3.44387
 Alpha virt. eigenvalues --    3.45155   3.46093   3.47534   3.53253   3.54538
 Alpha virt. eigenvalues --    3.57840   3.61204   3.63577   3.65421   3.77027
 Alpha virt. eigenvalues --    3.81740   3.89097   3.93378   3.96292   4.03237
 Alpha virt. eigenvalues --    4.18565   4.24324   4.24846   4.34511   4.36496
 Alpha virt. eigenvalues --    4.42025   4.47464   4.53637   4.57312   4.79273
 Alpha virt. eigenvalues --    5.16053   5.17205   5.17392   5.18571   5.27782
 Alpha virt. eigenvalues --    5.28978   5.38453   5.41729   5.45702   5.50551
 Alpha virt. eigenvalues --    5.79659   5.85945   6.03091   6.23165   6.42625
 Alpha virt. eigenvalues --    6.44604   6.55100   6.58759   6.60390   6.64283
 Alpha virt. eigenvalues --    6.67128   6.77468   6.82426   6.95913   7.06290
 Alpha virt. eigenvalues --    7.16301   7.25379  11.94394  22.37250  22.41137
 Alpha virt. eigenvalues --   22.46088  43.63459  43.94792
          Condensed to atoms (all electrons):
              1          2          3          4          5          6
     1  H    0.549373   0.407386  -0.032617  -0.024042  -0.024352  -0.006902
     2  C    0.407386   4.947717   0.310009   0.399177   0.411949  -0.027909
     3  C   -0.032617   0.310009   5.025029  -0.046176  -0.039737   0.387551
     4  H   -0.024042   0.399177  -0.046176   0.597587  -0.029008  -0.005323
     5  H   -0.024352   0.411949  -0.039737  -0.029008   0.536295   0.007805
     6  H   -0.006902  -0.027909   0.387551  -0.005323   0.007805   0.581319
     7  Si   0.008209  -0.019027   0.443446  -0.009521  -0.008098  -0.028844
     8  H   -0.006761  -0.027546   0.365068   0.009786  -0.004071  -0.027117
     9  O    0.000201  -0.004490  -0.043347   0.006121  -0.000564  -0.002087
    10  O    0.000023  -0.005198  -0.031000   0.000813   0.007423   0.001279
    11  H   -0.000092   0.001745  -0.033543   0.000197   0.000411   0.001314
    12  H   -0.000122   0.001561  -0.002447   0.003335  -0.000030   0.000131
    13  C    0.000012  -0.000147   0.002594   0.000090  -0.000080  -0.000141
    14  H   -0.000004   0.000210  -0.000475  -0.000001  -0.000154   0.000000
    15  H    0.000001  -0.000046   0.000000   0.000002   0.000081  -0.000001
    16  H    0.000000  -0.000070   0.000765  -0.000032   0.000008   0.000017
              7          8          9         10         11         12
     1  H    0.008209  -0.006761   0.000201   0.000023  -0.000092  -0.000122
     2  C   -0.019027  -0.027546  -0.004490  -0.005198   0.001745   0.001561
     3  C    0.443446   0.365068  -0.043347  -0.031000  -0.033543  -0.002447
     4  H   -0.009521   0.009786   0.006121   0.000813   0.000197   0.003335
     5  H   -0.008098  -0.004071  -0.000564   0.007423   0.000411  -0.000030
     6  H   -0.028844  -0.027117  -0.002087   0.001279   0.001314   0.000131
     7  Si  11.890269  -0.021275   0.453072   0.443840   0.392262  -0.028252
     8  H   -0.021275   0.595835   0.003372   0.002463   0.001114  -0.000067
     9  O    0.453072   0.003372   7.855016  -0.030689  -0.012025   0.304224
    10  O    0.443840   0.002463  -0.030689   7.840904  -0.025550  -0.001246
    11  H    0.392262   0.001114  -0.012025  -0.025550   0.715410   0.003169
    12  H   -0.028252  -0.000067   0.304224  -0.001246   0.003169   0.398693
    13  C   -0.047405   0.000076  -0.004186   0.258754   0.001941   0.000361
    14  H    0.007569   0.000007   0.000025  -0.041455  -0.000208   0.000015
    15  H   -0.018617  -0.000015  -0.000447  -0.041937   0.009603  -0.000039
    16  H   -0.004150  -0.000027   0.004710  -0.043593  -0.001954   0.000318
             13         14         15         16
     1  H    0.000012  -0.000004   0.000001   0.000000
     2  C   -0.000147   0.000210  -0.000046  -0.000070
     3  C    0.002594  -0.000475   0.000000   0.000765
     4  H    0.000090  -0.000001   0.000002  -0.000032
     5  H   -0.000080  -0.000154   0.000081   0.000008
     6  H   -0.000141   0.000000  -0.000001   0.000017
     7  Si  -0.047405   0.007569  -0.018617  -0.004150
     8  H    0.000076   0.000007  -0.000015  -0.000027
     9  O   -0.004186   0.000025  -0.000447   0.004710
    10  O    0.258754  -0.041455  -0.041937  -0.043593
    11  H    0.001941  -0.000208   0.009603  -0.001954
    12  H    0.000361   0.000015  -0.000039   0.000318
    13  C    4.772004   0.403293   0.417962   0.413082
    14  H    0.403293   0.563141  -0.029485  -0.032818
    15  H    0.417962  -0.029485   0.592731  -0.048722
    16  H    0.413082  -0.032818  -0.048722   0.589333
 Mulliken atomic charges:
              1
     1  H    0.129688
     2  C   -0.395321
     3  C   -0.305120
     4  H    0.096994
     5  H    0.142123
     6  H    0.118906
     7  Si   0.546522
     8  H    0.109157
     9  O   -0.528905
    10  O   -0.334834
    11  H   -0.053794
    12  H    0.320394
    13  C   -0.218211
    14  H    0.130340
    15  H    0.118928
    16  H    0.123132
 Sum of Mulliken atomic charges =   0.00000
 Mulliken charges with hydrogens summed into heavy atoms:
              1
     2  C   -0.026515
     3  C   -0.077057
     7  Si   0.492728
     9  O   -0.208511
    10  O   -0.334834
    13  C    0.154189
 Sum of Mulliken charges with hydrogens summed into heavy atoms =   0.00000
 Electronic spatial extent (au):  <R**2>=            862.8417
 Charge=              0.0000 electrons
 Dipole moment (field-independent basis, Debye):
    X=              0.1990    Y=             -0.6045    Z=             -0.7151  Tot=              0.9573
 Quadrupole moment (field-independent basis, Debye-Ang):
   XX=            -40.6960   YY=            -49.6204   ZZ=            -43.0407
   XY=             -0.9301   XZ=              0.3534   YZ=             -1.0385
 Traceless Quadrupole moment (field-independent basis, Debye-Ang):
   XX=              3.7564   YY=             -5.1681   ZZ=              1.4117
   XY=             -0.9301   XZ=              0.3534   YZ=             -1.0385
 Octapole moment (field-independent basis, Debye-Ang**2):
  XXX=             15.3810  YYY=             -7.0220  ZZZ=             -9.8049  XYY=              0.5688
  XXY=             -0.6131  XXZ=             -2.7474  XZZ=             -0.2967  YZZ=              4.3499
  YYZ=             -2.0008  XYZ=              2.3116
 Hexadecapole moment (field-independent basis, Debye-Ang**3):
 XXXX=           -702.0079 YYYY=           -287.4211 ZZZZ=           -167.1884 XXXY=            -14.8802
 XXXZ=             -5.7138 YYYX=            -10.6080 YYYZ=             -3.6225 ZZZX=              0.8468
 ZZZY=            -17.0645 XXYY=           -160.4083 XXZZ=           -150.1777 YYZZ=            -67.5977
 XXYZ=             -1.8506 YYXZ=             -0.4791 ZZXY=             -7.8240
 N-N= 3.302376119938D+02 E-N=-1.984449567345D+03  KE= 5.582474283887D+02
 1\1\GINC-TARSUS4\SP\RPBE1PBE\def2TZVP\C3H10O2Si1\RENATO\08-Aug-2018\0\
 \#SP PBE1PBE/Def2TZVP geom=connectivity\\Structure: 39\\0,1\H,0,0.,0.,
 0.\C,0,1.093,0.,0.\C,0,1.655,1.421,0.\H,0,1.41,-0.56,-0.885\H,0,1.424,
 -0.557,0.88\H,0,1.308,1.969,-0.883\Si,0,3.513,1.515,0.035\H,0,1.282,1.
 975,0.868\O,0,3.96,0.72,-1.338\O,0,3.968,0.824,1.454\H,0,4.029,2.906,-
 0.04\H,0,3.623,-0.168,-1.465\C,0,5.301,0.766,1.905\H,0,5.308,0.322,2.9
 02\H,0,5.747,1.766,1.967\H,0,5.921,0.153,1.244\\Version=EM64L-G09RevC.
 01\State=1-A\HF=-560.0575992\RMSD=8.233e-09\Dipole=0.0120774,-0.316523
 5,0.2037587\Quadrupole=1.0342996,0.5781209,-1.6124205,-0.5219397,2.813
 5799,1.6688571\PG=C01 [X(C3H10O2Si1)]\\@


 THE HURRIEDER I GO, THE BEHINDER I GET.
 Job cpu time:  0 days  0 hours 12 minutes 40.6 seconds.
 File lengths (MBytes):  RWF=     40 Int=      0 D2E=      0 Chk=      3 Scr=      1
 Normal termination of Gaussian 09 at Wed Aug  8 15:31:10 2018.
