 Entering Gaussian System, Link 0=g09
 Initial command:
 /usr/local/gaussian09/g09/l1.exe /scratch/renato/Gau-6757.inp -scrdir=/scratch/renato/
 Entering Link 1 = /usr/local/gaussian09/g09/l1.exe PID=      6759.
  
 Copyright (c) 1988,1990,1992,1993,1995,1998,2003,2009,2011,
            Gaussian, Inc.  All Rights Reserved.
  
 This is part of the Gaussian(R) 09 program.  It is based on
 the Gaussian(R) 03 system (copyright 2003, Gaussian, Inc.),
 the Gaussian(R) 98 system (copyright 1998, Gaussian, Inc.),
 the Gaussian(R) 94 system (copyright 1995, Gaussian, Inc.),
 the Gaussian 92(TM) system (copyright 1992, Gaussian, Inc.),
 the Gaussian 90(TM) system (copyright 1990, Gaussian, Inc.),
 the Gaussian 88(TM) system (copyright 1988, Gaussian, Inc.),
 the Gaussian 86(TM) system (copyright 1986, Carnegie Mellon
 University), and the Gaussian 82(TM) system (copyright 1983,
 Carnegie Mellon University). Gaussian is a federally registered
 trademark of Gaussian, Inc.
  
 This software contains proprietary and confidential information,
 including trade secrets, belonging to Gaussian, Inc.
  
 This software is provided under written license and may be
 used, copied, transmitted, or stored only in accord with that
 written license.
  
 The following legend is applicable only to US Government
 contracts under FAR:
  
                    RESTRICTED RIGHTS LEGEND
  
 Use, reproduction and disclosure by the US Government is
 subject to restrictions as set forth in subparagraphs (a)
 and (c) of the Commercial Computer Software - Restricted
 Rights clause in FAR 52.227-19.
  
 Gaussian, Inc.
 340 Quinnipiac St., Bldg. 40, Wallingford CT 06492
  
  
 ---------------------------------------------------------------
 Warning -- This program may not be used in any manner that
 competes with the business of Gaussian, Inc. or will provide
 assistance to any competitor of Gaussian, Inc.  The licensee
 of this program is prohibited from giving any competitor of
 Gaussian, Inc. access to this program.  By using this program,
 the user acknowledges that Gaussian, Inc. is engaged in the
 business of creating and licensing software in the field of
 computational chemistry and represents and warrants to the
 licensee that it is not a competitor of Gaussian, Inc. and that
 it will not use this program in any manner prohibited above.
 ---------------------------------------------------------------
  

 Cite this work as:
 Gaussian 09, Revision C.01,
 M. J. Frisch, G. W. Trucks, H. B. Schlegel, G. E. Scuseria, 
 M. A. Robb, J. R. Cheeseman, G. Scalmani, V. Barone, B. Mennucci, 
 G. A. Petersson, H. Nakatsuji, M. Caricato, X. Li, H. P. Hratchian, 
 A. F. Izmaylov, J. Bloino, G. Zheng, J. L. Sonnenberg, M. Hada, 
 M. Ehara, K. Toyota, R. Fukuda, J. Hasegawa, M. Ishida, T. Nakajima, 
 Y. Honda, O. Kitao, H. Nakai, T. Vreven, J. A. Montgomery, Jr., 
 J. E. Peralta, F. Ogliaro, M. Bearpark, J. J. Heyd, E. Brothers, 
 K. N. Kudin, V. N. Staroverov, T. Keith, R. Kobayashi, J. Normand, 
 K. Raghavachari, A. Rendell, J. C. Burant, S. S. Iyengar, J. Tomasi, 
 M. Cossi, N. Rega, J. M. Millam, M. Klene, J. E. Knox, J. B. Cross, 
 V. Bakken, C. Adamo, J. Jaramillo, R. Gomperts, R. E. Stratmann, 
 O. Yazyev, A. J. Austin, R. Cammi, C. Pomelli, J. W. Ochterski, 
 R. L. Martin, K. Morokuma, V. G. Zakrzewski, G. A. Voth, 
 P. Salvador, J. J. Dannenberg, S. Dapprich, A. D. Daniels, 
 O. Farkas, J. B. Foresman, J. V. Ortiz, J. Cioslowski, 
 and D. J. Fox, Gaussian, Inc., Wallingford CT, 2010.
 
 ******************************************
 Gaussian 09:  EM64L-G09RevC.01 23-Sep-2011
                 8-Aug-2018 
 ******************************************
 %nproc=2
 Will use up to    2 processors via shared memory.
 %mem=256MB
 %RWF=a13.rwf
 %chk=a1333
 %NoSave
 --------------------------------------
 #SP PBE1PBE/Def2TZVP geom=connectivity
 --------------------------------------
 1/38=1,57=2/1;
 2/12=2,17=6,18=5,40=1/2;
 3/5=44,7=101,11=2,16=1,25=1,30=1,74=-13/1,2,3;
 4//1;
 5/5=2,38=5/2;
 6/7=2,8=2,9=2,10=2,28=1/1;
 99/5=1,9=1/99;
 -------------
 Structure: 33
 -------------
 Charge =  0 Multiplicity = 1
 Symbolic Z-Matrix:
 H                     0.        0.        0. 
 C                     1.093     0.        0. 
 C                     1.655     1.421     0. 
 H                     1.41     -0.56     -0.885 
 H                     1.424    -0.557     0.88 
 H                     1.308     1.969    -0.883 
 Si                    3.513     1.515     0.035 
 H                     1.282     1.975     0.868 
 O                     3.905     0.711    -1.35 
 O                     3.968     0.824     1.454 
 H                     4.029     2.906    -0.04 
 H                     3.548    -0.171    -1.466 
 C                     5.301     0.766     1.905 
 H                     5.308     0.322     2.902 
 H                     5.747     1.766     1.967 
 H                     5.921     0.153     1.244 
 
                          Input orientation:                          
 ---------------------------------------------------------------------
 Center     Atomic      Atomic             Coordinates (Angstroms)
 Number     Number       Type             X           Y           Z
 ---------------------------------------------------------------------
      1          1           0        0.000000    0.000000    0.000000
      2          6           0        1.093000    0.000000    0.000000
      3          6           0        1.655000    1.421000    0.000000
      4          1           0        1.410000   -0.560000   -0.885000
      5          1           0        1.424000   -0.557000    0.880000
      6          1           0        1.308000    1.969000   -0.883000
      7         14           0        3.513000    1.515000    0.035000
      8          1           0        1.282000    1.975000    0.868000
      9          8           0        3.905000    0.711000   -1.350000
     10          8           0        3.968000    0.824000    1.454000
     11          1           0        4.029000    2.906000   -0.040000
     12          1           0        3.548000   -0.171000   -1.466000
     13          6           0        5.301000    0.766000    1.905000
     14          1           0        5.308000    0.322000    2.902000
     15          1           0        5.747000    1.766000    1.967000
     16          1           0        5.921000    0.153000    1.244000
 ---------------------------------------------------------------------
                    Distance matrix (angstroms):
                    1          2          3          4          5
     1  H    0.000000
     2  C    1.093000   0.000000
     3  C    2.181345   1.528098   0.000000
     4  H    1.756395   1.094218   2.183486   0.000000
     5  H    1.764207   1.092799   2.177210   1.765058   0.000000
     6  H    2.523393   2.168611   1.095629   2.531057   3.082580
     7  Si   3.825914   2.855320   1.860706   3.094291   3.061230
     8  H    2.509497   2.165588   1.095203   3.084740   2.536007
     9  O    4.192499   3.199276   2.718290   2.838431   3.568765
    10  O    4.305591   3.325465   2.796515   3.732257   2.951029
    11  H    4.967824   4.131166   2.800482   4.425646   4.429988
    12  H    3.842747   2.864511   2.875251   2.249428   3.188117
    13  C    5.684750   4.682205   4.165497   4.968124   4.222805
    14  H    6.058065   5.127525   4.793101   5.505788   4.466160
    15  H    6.325809   5.352342   4.553304   5.688036   5.026552
    16  H    6.052205   4.988039   4.621051   5.038862   4.567232
                    6          7          8          9         10
     6  H    0.000000
     7  Si   2.431227   0.000000
     8  H    1.751203   2.425459   0.000000
     9  O    2.923194   1.648728   3.660239   0.000000
    10  O    3.721316   1.642579   2.980401   2.806983   0.000000
    11  H    2.998743   1.485517   3.039282   2.559199   2.563295
    12  H    3.152315   2.257614   3.897131   0.958556   3.113330
    13  C    5.016393   2.693482   4.323125   3.542156   1.408423
    14  H    5.747942   3.586776   4.803982   4.494356   2.035757
    15  H    5.279056   2.964183   4.603011   3.938080   2.077348
    16  H    5.394604   3.019137   4.998138   3.332335   2.075705
                   11         12         13         14         15
    11  H    0.000000
    12  H    3.425313   0.000000
    13  C    3.159210   3.913390   0.000000
    14  H    4.119255   4.734984   1.091418   0.000000
    15  H    2.877355   4.513653   1.096704   1.775410   0.000000
    16  H    3.578733   3.616657   1.094116   1.775752   1.776168
                   16
    16  H    0.000000
 Stoichiometry    C3H10O2Si
 Framework group  C1[X(C3H10O2Si)]
 Deg. of freedom    42
 Full point group                 C1      NOp   1
 Largest Abelian subgroup         C1      NOp   1
 Largest concise Abelian subgroup C1      NOp   1
                         Standard orientation:                         
 ---------------------------------------------------------------------
 Center     Atomic      Atomic             Coordinates (Angstroms)
 Number     Number       Type             X           Y           Z
 ---------------------------------------------------------------------
      1          1           0       -3.117026   -1.360699   -0.427683
      2          6           0       -2.149188   -0.884689   -0.604752
      3          6           0       -1.541505   -0.347975    0.690526
      4          1           0       -2.317329   -0.086055   -1.333605
      5          1           0       -1.496039   -1.626231   -1.071359
      6          1           0       -2.210893    0.387378    1.150501
      7         14           0        0.127046    0.449836    0.486419
      8          1           0       -1.431205   -1.157331    1.420078
      9          8           0       -0.222661    1.669213   -0.566734
     10          8           0        1.126569   -0.737627   -0.051123
     11          1           0        0.657310    1.026085    1.748766
     12          1           0       -0.660227    1.434186   -1.386568
     13          6           0        2.509066   -0.564279   -0.256815
     14          1           0        2.937672   -1.526250   -0.543351
     15          1           0        3.009837   -0.218921    0.655718
     16          1           0        2.707752    0.159105   -1.053263
 ---------------------------------------------------------------------
 Rotational constants (GHZ):      4.1726233      1.8885500      1.5957248
 Standard basis: def2TZVP (5D, 7F)
 There are   252 symmetry adapted basis functions of A   symmetry.
 Integral buffers will be    131072 words long.
 Raffenetti 2 integral format.
 Two-electron integral symmetry is turned on.
   252 basis functions,   404 primitive gaussians,   282 cartesian basis functions
    29 alpha electrons       29 beta electrons
       nuclear repulsion energy       330.4215705134 Hartrees.
 NAtoms=   16 NActive=   16 NUniq=   16 SFac= 1.00D+00 NAtFMM=   60 NAOKFM=F Big=F
 One-electron integrals computed using PRISM.
   1 Symmetry operations used in ECPInt.
 ECPInt:  NShTT=    5886 NPrTT=   17754 LenC2=    5778 LenP2D=   13928.
 LDataN:  DoStor=T MaxTD1= 6 Len=  172
 NBasis=   252 RedAO= T  NBF=   252
 NBsUse=   252 1.00D-06 NBFU=   252
 Harris functional with IExCor= 1009 diagonalized for initial guess.
 ExpMin= 7.01D-02 ExpMax= 4.48D+04 ExpMxC= 1.53D+03 IAcc=2 IRadAn=         4 AccDes= 0.00D+00
 HarFok:  IExCor= 1009 AccDes= 0.00D+00 IRadAn=         4 IDoV= 1
 ScaDFX=  1.000000  1.000000  1.000000  1.000000
 FoFCou: FMM=F IPFlag=           0 FMFlag=      100000 FMFlg1=           0
         NFxFlg=           0 DoJE=T BraDBF=F KetDBF=T FulRan=T
         Omega=  0.000000  0.000000  1.000000  0.000000  0.000000 ICntrl=     500 IOpCl=  0
         NMat0=    1 NMatS0=    1 NMatT0=    0 NMatD0=    1 NMtDS0=    0 NMtDT0=    0
         I1Cent=           4 NGrid=           0.
 Petite list used in FoFCou.
 Initial guess orbital symmetries:
       Occupied  (A) (A) (A) (A) (A) (A) (A) (A) (A) (A) (A) (A)
                 (A) (A) (A) (A) (A) (A) (A) (A) (A) (A) (A) (A)
                 (A) (A) (A) (A) (A)
       Virtual   (A) (A) (A) (A) (A) (A) (A) (A) (A) (A) (A) (A)
                 (A) (A) (A) (A) (A) (A) (A) (A) (A) (A) (A) (A)
                 (A) (A) (A) (A) (A) (A) (A) (A) (A) (A) (A) (A)
                 (A) (A) (A) (A) (A) (A) (A) (A) (A) (A) (A) (A)
                 (A) (A) (A) (A) (A) (A) (A) (A) (A) (A) (A) (A)
                 (A) (A) (A) (A) (A) (A) (A) (A) (A) (A) (A) (A)
                 (A) (A) (A) (A) (A) (A) (A) (A) (A) (A) (A) (A)
                 (A) (A) (A) (A) (A) (A) (A) (A) (A) (A) (A) (A)
                 (A) (A) (A) (A) (A) (A) (A) (A) (A) (A) (A) (A)
                 (A) (A) (A) (A) (A) (A) (A) (A) (A) (A) (A) (A)
                 (A) (A) (A) (A) (A) (A) (A) (A) (A) (A) (A) (A)
                 (A) (A) (A) (A) (A) (A) (A) (A) (A) (A) (A) (A)
                 (A) (A) (A) (A) (A) (A) (A) (A) (A) (A) (A) (A)
                 (A) (A) (A) (A) (A) (A) (A) (A) (A) (A) (A) (A)
                 (A) (A) (A) (A) (A) (A) (A) (A) (A) (A) (A) (A)
                 (A) (A) (A) (A) (A) (A) (A) (A) (A) (A) (A) (A)
                 (A) (A) (A) (A) (A) (A) (A) (A) (A) (A) (A) (A)
                 (A) (A) (A) (A) (A) (A) (A) (A) (A) (A) (A) (A)
                 (A) (A) (A) (A) (A) (A) (A)
 The electronic state of the initial guess is 1-A.
 Requested convergence on RMS density matrix=1.00D-08 within 128 cycles.
 Requested convergence on MAX density matrix=1.00D-06.
 Requested convergence on             energy=1.00D-06.
 No special actions if energy rises.
 Integral accuracy reduced to 1.0D-05 until final iterations.
 Initial convergence to 1.0D-05 achieved.  Increase integral accuracy.
 SCF Done:  E(RPBE1PBE) =  -560.055817440     A.U. after   12 cycles
             Convg  =    0.8500D-08             -V/T =  2.0032

 **********************************************************************

            Population analysis using the SCF density.

 **********************************************************************

 Orbital symmetries:
       Occupied  (A) (A) (A) (A) (A) (A) (A) (A) (A) (A) (A) (A)
                 (A) (A) (A) (A) (A) (A) (A) (A) (A) (A) (A) (A)
                 (A) (A) (A) (A) (A)
       Virtual   (A) (A) (A) (A) (A) (A) (A) (A) (A) (A) (A) (A)
                 (A) (A) (A) (A) (A) (A) (A) (A) (A) (A) (A) (A)
                 (A) (A) (A) (A) (A) (A) (A) (A) (A) (A) (A) (A)
                 (A) (A) (A) (A) (A) (A) (A) (A) (A) (A) (A) (A)
                 (A) (A) (A) (A) (A) (A) (A) (A) (A) (A) (A) (A)
                 (A) (A) (A) (A) (A) (A) (A) (A) (A) (A) (A) (A)
                 (A) (A) (A) (A) (A) (A) (A) (A) (A) (A) (A) (A)
                 (A) (A) (A) (A) (A) (A) (A) (A) (A) (A) (A) (A)
                 (A) (A) (A) (A) (A) (A) (A) (A) (A) (A) (A) (A)
                 (A) (A) (A) (A) (A) (A) (A) (A) (A) (A) (A) (A)
                 (A) (A) (A) (A) (A) (A) (A) (A) (A) (A) (A) (A)
                 (A) (A) (A) (A) (A) (A) (A) (A) (A) (A) (A) (A)
                 (A) (A) (A) (A) (A) (A) (A) (A) (A) (A) (A) (A)
                 (A) (A) (A) (A) (A) (A) (A) (A) (A) (A) (A) (A)
                 (A) (A) (A) (A) (A) (A) (A) (A) (A) (A) (A) (A)
                 (A) (A) (A) (A) (A) (A) (A) (A) (A) (A) (A) (A)
                 (A) (A) (A) (A) (A) (A) (A) (A) (A) (A) (A) (A)
                 (A) (A) (A) (A) (A) (A) (A) (A) (A) (A) (A) (A)
                 (A) (A) (A) (A) (A) (A) (A)
 The electronic state is 1-A.
 Alpha  occ. eigenvalues --  -66.25574 -19.20646 -19.19909 -10.26875 -10.21522
 Alpha  occ. eigenvalues --  -10.19985  -5.33226  -3.66742  -3.66664  -3.66482
 Alpha  occ. eigenvalues --   -1.04747  -1.02314  -0.77732  -0.70933  -0.63713
 Alpha  occ. eigenvalues --   -0.56527  -0.51554  -0.47249  -0.46938  -0.45784
 Alpha  occ. eigenvalues --   -0.43525  -0.41178  -0.38638  -0.37232  -0.36469
 Alpha  occ. eigenvalues --   -0.35298  -0.32342  -0.30674  -0.29053
 Alpha virt. eigenvalues --    0.02317   0.05172   0.05893   0.08015   0.09010
 Alpha virt. eigenvalues --    0.09710   0.11077   0.11468   0.11971   0.13199
 Alpha virt. eigenvalues --    0.13595   0.15134   0.16557   0.17822   0.19786
 Alpha virt. eigenvalues --    0.21491   0.22285   0.22958   0.25047   0.25414
 Alpha virt. eigenvalues --    0.26706   0.27725   0.28770   0.29754   0.31181
 Alpha virt. eigenvalues --    0.32809   0.35833   0.38587   0.40128   0.40853
 Alpha virt. eigenvalues --    0.41959   0.42693   0.43750   0.45403   0.45647
 Alpha virt. eigenvalues --    0.46230   0.47292   0.48005   0.48972   0.50310
 Alpha virt. eigenvalues --    0.51516   0.53854   0.55626   0.57728   0.59328
 Alpha virt. eigenvalues --    0.61137   0.64443   0.66297   0.66838   0.67833
 Alpha virt. eigenvalues --    0.73032   0.73452   0.75799   0.79084   0.79674
 Alpha virt. eigenvalues --    0.83170   0.83848   0.86371   0.88944   0.91555
 Alpha virt. eigenvalues --    0.93473   0.95398   0.97337   0.99666   0.99801
 Alpha virt. eigenvalues --    1.04247   1.06177   1.06918   1.09769   1.11858
 Alpha virt. eigenvalues --    1.13096   1.13982   1.17023   1.18365   1.20390
 Alpha virt. eigenvalues --    1.24194   1.31258   1.32467   1.36916   1.40237
 Alpha virt. eigenvalues --    1.42754   1.45973   1.47386   1.49498   1.51615
 Alpha virt. eigenvalues --    1.52487   1.54088   1.55000   1.57155   1.58424
 Alpha virt. eigenvalues --    1.59903   1.62557   1.64036   1.64556   1.66272
 Alpha virt. eigenvalues --    1.69406   1.71959   1.75616   1.77722   1.78506
 Alpha virt. eigenvalues --    1.81708   1.82827   1.86543   1.87143   1.92955
 Alpha virt. eigenvalues --    1.95304   1.96532   1.97851   2.01241   2.03759
 Alpha virt. eigenvalues --    2.05735   2.09125   2.12024   2.12689   2.14293
 Alpha virt. eigenvalues --    2.17837   2.21208   2.26027   2.27285   2.30667
 Alpha virt. eigenvalues --    2.32101   2.33262   2.34039   2.34858   2.36019
 Alpha virt. eigenvalues --    2.37013   2.40068   2.44155   2.47313   2.50243
 Alpha virt. eigenvalues --    2.50851   2.52503   2.54640   2.55909   2.58224
 Alpha virt. eigenvalues --    2.60045   2.61393   2.65798   2.68963   2.71711
 Alpha virt. eigenvalues --    2.72944   2.78408   2.80647   2.82626   2.84646
 Alpha virt. eigenvalues --    2.85199   2.93937   2.95583   2.98166   3.01764
 Alpha virt. eigenvalues --    3.05144   3.10135   3.10693   3.11804   3.15232
 Alpha virt. eigenvalues --    3.21712   3.22839   3.24465   3.28270   3.30196
 Alpha virt. eigenvalues --    3.32284   3.32721   3.37738   3.40780   3.44311
 Alpha virt. eigenvalues --    3.45024   3.46229   3.47941   3.53105   3.55082
 Alpha virt. eigenvalues --    3.57737   3.61017   3.63825   3.65552   3.77146
 Alpha virt. eigenvalues --    3.81785   3.89281   3.93529   3.96480   4.03289
 Alpha virt. eigenvalues --    4.18468   4.24250   4.24893   4.34602   4.36414
 Alpha virt. eigenvalues --    4.42119   4.47574   4.53655   4.57356   4.79442
 Alpha virt. eigenvalues --    5.16181   5.17275   5.17327   5.18704   5.27655
 Alpha virt. eigenvalues --    5.28908   5.38438   5.41722   5.45713   5.50730
 Alpha virt. eigenvalues --    5.79605   5.85803   6.02995   6.23214   6.42675
 Alpha virt. eigenvalues --    6.44998   6.55393   6.58587   6.60263   6.63986
 Alpha virt. eigenvalues --    6.67138   6.77121   6.82559   6.95881   7.06460
 Alpha virt. eigenvalues --    7.16368   7.26083  11.94691  22.37325  22.41137
 Alpha virt. eigenvalues --   22.46331  43.63950  43.94852
          Condensed to atoms (all electrons):
              1          2          3          4          5          6
     1  H    0.549042   0.407249  -0.032498  -0.023800  -0.024249  -0.006887
     2  C    0.407249   4.948969   0.309221   0.398775   0.411726  -0.027599
     3  C   -0.032498   0.309221   5.024761  -0.046523  -0.039760   0.387634
     4  H   -0.023800   0.398775  -0.046523   0.600709  -0.029296  -0.005410
     5  H   -0.024249   0.411726  -0.039760  -0.029296   0.536673   0.007806
     6  H   -0.006887  -0.027599   0.387634  -0.005410   0.007806   0.581941
     7  Si   0.008274  -0.019177   0.447661  -0.010375  -0.008022  -0.028882
     8  H   -0.006762  -0.027321   0.363624   0.009986  -0.004049  -0.027216
     9  O    0.000255  -0.005067  -0.045021   0.006262  -0.000582  -0.002389
    10  O    0.000024  -0.005200  -0.030830   0.000888   0.007396   0.001274
    11  H   -0.000087   0.001742  -0.033324   0.000194   0.000411   0.001305
    12  H   -0.000129   0.001991  -0.002654   0.003644  -0.000050   0.000151
    13  C    0.000012  -0.000165   0.002714   0.000087  -0.000081  -0.000144
    14  H   -0.000004   0.000207  -0.000483   0.000000  -0.000152   0.000000
    15  H    0.000001  -0.000047   0.000011   0.000002   0.000080  -0.000002
    16  H    0.000000  -0.000058   0.000745  -0.000035   0.000007   0.000018
              7          8          9         10         11         12
     1  H    0.008274  -0.006762   0.000255   0.000024  -0.000087  -0.000129
     2  C   -0.019177  -0.027321  -0.005067  -0.005200   0.001742   0.001991
     3  C    0.447661   0.363624  -0.045021  -0.030830  -0.033324  -0.002654
     4  H   -0.010375   0.009986   0.006262   0.000888   0.000194   0.003644
     5  H   -0.008022  -0.004049  -0.000582   0.007396   0.000411  -0.000050
     6  H   -0.028882  -0.027216  -0.002389   0.001274   0.001305   0.000151
     7  Si  11.891450  -0.023027   0.449724   0.442684   0.392375  -0.028373
     8  H   -0.023027   0.600017   0.003801   0.002591   0.001172  -0.000083
     9  O    0.449724   0.003801   7.857261  -0.029753  -0.011253   0.305077
    10  O    0.442684   0.002591  -0.029753   7.840287  -0.025337  -0.001288
    11  H    0.392375   0.001172  -0.011253  -0.025337   0.712099   0.003001
    12  H   -0.028373  -0.000083   0.305077  -0.001288   0.003001   0.397918
    13  C   -0.046953   0.000075  -0.003756   0.258076   0.001847   0.000296
    14  H    0.007526   0.000008   0.000016  -0.041484  -0.000206   0.000014
    15  H   -0.018770  -0.000014  -0.000438  -0.041789   0.009483  -0.000039
    16  H   -0.004054  -0.000030   0.004358  -0.043549  -0.001939   0.000319
             13         14         15         16
     1  H    0.000012  -0.000004   0.000001   0.000000
     2  C   -0.000165   0.000207  -0.000047  -0.000058
     3  C    0.002714  -0.000483   0.000011   0.000745
     4  H    0.000087   0.000000   0.000002  -0.000035
     5  H   -0.000081  -0.000152   0.000080   0.000007
     6  H   -0.000144   0.000000  -0.000002   0.000018
     7  Si  -0.046953   0.007526  -0.018770  -0.004054
     8  H    0.000075   0.000008  -0.000014  -0.000030
     9  O   -0.003756   0.000016  -0.000438   0.004358
    10  O    0.258076  -0.041484  -0.041789  -0.043549
    11  H    0.001847  -0.000206   0.009483  -0.001939
    12  H    0.000296   0.000014  -0.000039   0.000319
    13  C    4.772779   0.403461   0.417934   0.413195
    14  H    0.403461   0.562392  -0.029316  -0.032654
    15  H    0.417934  -0.029316   0.592590  -0.048881
    16  H    0.413195  -0.032654  -0.048881   0.588923
 Mulliken atomic charges:
              1
     1  H    0.129561
     2  C   -0.395246
     3  C   -0.305279
     4  H    0.094891
     5  H    0.142142
     6  H    0.118400
     7  Si   0.547941
     8  H    0.107226
     9  O   -0.528495
    10  O   -0.333990
    11  H   -0.051484
    12  H    0.320205
    13  C   -0.219376
    14  H    0.130676
    15  H    0.119193
    16  H    0.123636
 Sum of Mulliken atomic charges =   0.00000
 Mulliken charges with hydrogens summed into heavy atoms:
              1
     2  C   -0.028652
     3  C   -0.079654
     7  Si   0.496456
     9  O   -0.208290
    10  O   -0.333990
    13  C    0.154130
 Sum of Mulliken charges with hydrogens summed into heavy atoms =   0.00000
 Electronic spatial extent (au):  <R**2>=            861.9434
 Charge=              0.0000 electrons
 Dipole moment (field-independent basis, Debye):
    X=              0.3021    Y=             -0.6039    Z=             -0.6774  Tot=              0.9564
 Quadrupole moment (field-independent basis, Debye-Ang):
   XX=            -40.5991   YY=            -49.6699   ZZ=            -43.0997
   XY=             -0.7569   XZ=              0.4475   YZ=             -0.8518
 Traceless Quadrupole moment (field-independent basis, Debye-Ang):
   XX=              3.8571   YY=             -5.2136   ZZ=              1.3565
   XY=             -0.7569   XZ=              0.4475   YZ=             -0.8518
 Octapole moment (field-independent basis, Debye-Ang**2):
  XXX=             15.4668  YYY=             -7.1005  ZZZ=             -9.5930  XYY=              0.9558
  XXY=             -0.3818  XXZ=             -3.0829  XZZ=             -0.4302  YZZ=              4.1446
  YYZ=             -1.6471  XYZ=              2.3073
 Hexadecapole moment (field-independent basis, Debye-Ang**3):
 XXXX=           -701.9345 YYYY=           -285.8008 ZZZZ=           -167.0361 XXXY=            -15.4453
 XXXZ=             -5.3866 YYYX=            -10.1468 YYYZ=             -2.8013 ZZZX=              1.5667
 ZZZY=            -16.4246 XXYY=           -160.1708 XXZZ=           -149.9702 YYZZ=            -68.0540
 XXYZ=             -2.0824 YYXZ=             -0.4904 ZZXY=             -8.2230
 N-N= 3.304215705134D+02 E-N=-1.984815263096D+03  KE= 5.582494163496D+02
 1\1\GINC-TARSUS4\SP\RPBE1PBE\def2TZVP\C3H10O2Si1\RENATO\08-Aug-2018\0\
 \#SP PBE1PBE/Def2TZVP geom=connectivity\\Structure: 33\\0,1\H,0,0.,0.,
 0.\C,0,1.093,0.,0.\C,0,1.655,1.421,0.\H,0,1.41,-0.56,-0.885\H,0,1.424,
 -0.557,0.88\H,0,1.308,1.969,-0.883\Si,0,3.513,1.515,0.035\H,0,1.282,1.
 975,0.868\O,0,3.905,0.711,-1.35\O,0,3.968,0.824,1.454\H,0,4.029,2.906,
 -0.04\H,0,3.548,-0.171,-1.466\C,0,5.301,0.766,1.905\H,0,5.308,0.322,2.
 902\H,0,5.747,1.766,1.967\H,0,5.921,0.153,1.244\\Version=EM64L-G09RevC
 .01\State=1-A\HF=-560.0558174\RMSD=8.500e-09\Dipole=0.0449355,-0.29960
 52,0.2231798\Quadrupole=1.0996405,0.5919645,-1.691605,-0.3957347,2.831
 324,1.6054878\PG=C01 [X(C3H10O2Si1)]\\@


 I WISH TO HAVE NO CONNECTION WITH ANY SHIP THAT DOES NOT SAIL FAST,
 FOR I INTEND TO GO IN HARM'S WAY.
     -- JOHN PAUL JONES, USN 1747-1792
 Job cpu time:  0 days  0 hours 12 minutes 26.7 seconds.
 File lengths (MBytes):  RWF=     40 Int=      0 D2E=      0 Chk=      3 Scr=      1
 Normal termination of Gaussian 09 at Wed Aug  8 14:56:48 2018.
