 Entering Gaussian System, Link 0=g09
 Initial command:
 /usr/local/gaussian09/g09/l1.exe /scratch/renato/Gau-7739.inp -scrdir=/scratch/renato/
 Entering Link 1 = /usr/local/gaussian09/g09/l1.exe PID=      7741.
  
 Copyright (c) 1988,1990,1992,1993,1995,1998,2003,2009,2011,
            Gaussian, Inc.  All Rights Reserved.
  
 This is part of the Gaussian(R) 09 program.  It is based on
 the Gaussian(R) 03 system (copyright 2003, Gaussian, Inc.),
 the Gaussian(R) 98 system (copyright 1998, Gaussian, Inc.),
 the Gaussian(R) 94 system (copyright 1995, Gaussian, Inc.),
 the Gaussian 92(TM) system (copyright 1992, Gaussian, Inc.),
 the Gaussian 90(TM) system (copyright 1990, Gaussian, Inc.),
 the Gaussian 88(TM) system (copyright 1988, Gaussian, Inc.),
 the Gaussian 86(TM) system (copyright 1986, Carnegie Mellon
 University), and the Gaussian 82(TM) system (copyright 1983,
 Carnegie Mellon University). Gaussian is a federally registered
 trademark of Gaussian, Inc.
  
 This software contains proprietary and confidential information,
 including trade secrets, belonging to Gaussian, Inc.
  
 This software is provided under written license and may be
 used, copied, transmitted, or stored only in accord with that
 written license.
  
 The following legend is applicable only to US Government
 contracts under FAR:
  
                    RESTRICTED RIGHTS LEGEND
  
 Use, reproduction and disclosure by the US Government is
 subject to restrictions as set forth in subparagraphs (a)
 and (c) of the Commercial Computer Software - Restricted
 Rights clause in FAR 52.227-19.
  
 Gaussian, Inc.
 340 Quinnipiac St., Bldg. 40, Wallingford CT 06492
  
  
 ---------------------------------------------------------------
 Warning -- This program may not be used in any manner that
 competes with the business of Gaussian, Inc. or will provide
 assistance to any competitor of Gaussian, Inc.  The licensee
 of this program is prohibited from giving any competitor of
 Gaussian, Inc. access to this program.  By using this program,
 the user acknowledges that Gaussian, Inc. is engaged in the
 business of creating and licensing software in the field of
 computational chemistry and represents and warrants to the
 licensee that it is not a competitor of Gaussian, Inc. and that
 it will not use this program in any manner prohibited above.
 ---------------------------------------------------------------
  

 Cite this work as:
 Gaussian 09, Revision C.01,
 M. J. Frisch, G. W. Trucks, H. B. Schlegel, G. E. Scuseria, 
 M. A. Robb, J. R. Cheeseman, G. Scalmani, V. Barone, B. Mennucci, 
 G. A. Petersson, H. Nakatsuji, M. Caricato, X. Li, H. P. Hratchian, 
 A. F. Izmaylov, J. Bloino, G. Zheng, J. L. Sonnenberg, M. Hada, 
 M. Ehara, K. Toyota, R. Fukuda, J. Hasegawa, M. Ishida, T. Nakajima, 
 Y. Honda, O. Kitao, H. Nakai, T. Vreven, J. A. Montgomery, Jr., 
 J. E. Peralta, F. Ogliaro, M. Bearpark, J. J. Heyd, E. Brothers, 
 K. N. Kudin, V. N. Staroverov, T. Keith, R. Kobayashi, J. Normand, 
 K. Raghavachari, A. Rendell, J. C. Burant, S. S. Iyengar, J. Tomasi, 
 M. Cossi, N. Rega, J. M. Millam, M. Klene, J. E. Knox, J. B. Cross, 
 V. Bakken, C. Adamo, J. Jaramillo, R. Gomperts, R. E. Stratmann, 
 O. Yazyev, A. J. Austin, R. Cammi, C. Pomelli, J. W. Ochterski, 
 R. L. Martin, K. Morokuma, V. G. Zakrzewski, G. A. Voth, 
 P. Salvador, J. J. Dannenberg, S. Dapprich, A. D. Daniels, 
 O. Farkas, J. B. Foresman, J. V. Ortiz, J. Cioslowski, 
 and D. J. Fox, Gaussian, Inc., Wallingford CT, 2010.
 
 ******************************************
 Gaussian 09:  EM64L-G09RevC.01 23-Sep-2011
                 8-Aug-2018 
 ******************************************
 %nproc=2
 Will use up to    2 processors via shared memory.
 %mem=256MB
 %RWF=a13.rwf
 %chk=a1343
 %NoSave
 --------------------------------------
 #SP PBE1PBE/Def2TZVP geom=connectivity
 --------------------------------------
 1/38=1,57=2/1;
 2/12=2,17=6,18=5,40=1/2;
 3/5=44,7=101,11=2,16=1,25=1,30=1,74=-13/1,2,3;
 4//1;
 5/5=2,38=5/2;
 6/7=2,8=2,9=2,10=2,28=1/1;
 99/5=1,9=1/99;
 -------------
 Structure: 43
 -------------
 Charge =  0 Multiplicity = 1
 Symbolic Z-Matrix:
 H                     0.        0.        0. 
 C                     1.093     0.        0. 
 C                     1.655     1.421     0. 
 H                     1.41     -0.56     -0.885 
 H                     1.424    -0.557     0.88 
 H                     1.308     1.969    -0.883 
 Si                    3.513     1.515     0.035 
 H                     1.282     1.975     0.868 
 O                     3.997     0.726    -1.329 
 O                     3.968     0.824     1.454 
 H                     4.029     2.906    -0.04 
 H                     3.673    -0.165    -1.464 
 C                     5.301     0.766     1.905 
 H                     5.308     0.322     2.902 
 H                     5.747     1.766     1.967 
 H                     5.921     0.153     1.244 
 
                          Input orientation:                          
 ---------------------------------------------------------------------
 Center     Atomic      Atomic             Coordinates (Angstroms)
 Number     Number       Type             X           Y           Z
 ---------------------------------------------------------------------
      1          1           0        0.000000    0.000000    0.000000
      2          6           0        1.093000    0.000000    0.000000
      3          6           0        1.655000    1.421000    0.000000
      4          1           0        1.410000   -0.560000   -0.885000
      5          1           0        1.424000   -0.557000    0.880000
      6          1           0        1.308000    1.969000   -0.883000
      7         14           0        3.513000    1.515000    0.035000
      8          1           0        1.282000    1.975000    0.868000
      9          8           0        3.997000    0.726000   -1.329000
     10          8           0        3.968000    0.824000    1.454000
     11          1           0        4.029000    2.906000   -0.040000
     12          1           0        3.673000   -0.165000   -1.464000
     13          6           0        5.301000    0.766000    1.905000
     14          1           0        5.308000    0.322000    2.902000
     15          1           0        5.747000    1.766000    1.967000
     16          1           0        5.921000    0.153000    1.244000
 ---------------------------------------------------------------------
                    Distance matrix (angstroms):
                    1          2          3          4          5
     1  H    0.000000
     2  C    1.093000   0.000000
     3  C    2.181345   1.528098   0.000000
     4  H    1.756395   1.094218   2.183486   0.000000
     5  H    1.764207   1.092799   2.177210   1.765058   0.000000
     6  H    2.523393   2.168611   1.095629   2.531057   3.082580
     7  Si   3.825914   2.855320   1.860706   3.094291   3.061230
     8  H    2.509497   2.165588   1.095203   3.084740   2.536007
     9  O    4.274263   3.275139   2.781048   2.922927   3.625755
    10  O    4.305591   3.325465   2.796515   3.732257   2.951029
    11  H    4.967824   4.131166   2.800482   4.425646   4.429988
    12  H    3.957455   2.971013   2.954829   2.369058   3.272003
    13  C    5.684750   4.682205   4.165497   4.968124   4.222805
    14  H    6.058065   5.127525   4.793101   5.505788   4.466160
    15  H    6.325809   5.352342   4.553304   5.688036   5.026552
    16  H    6.052205   4.988039   4.621051   5.038862   4.567232
                    6          7          8          9         10
     6  H    0.000000
     7  Si   2.431227   0.000000
     8  H    1.751203   2.425459   0.000000
     9  O    2.995778   1.648415   3.709183   0.000000
    10  O    3.721316   1.642579   2.980401   2.784876   0.000000
    11  H    2.998743   1.485517   3.039282   2.532774   2.563295
    12  H    3.238015   2.257211   3.966700   0.957644   3.095137
    13  C    5.016393   2.693482   4.323125   3.487230   1.408423
    14  H    5.747942   3.586776   4.803982   4.447842   2.035757
    15  H    5.279056   2.964183   4.603011   3.873979   2.077348
    16  H    5.394604   3.019137   4.998138   3.263500   2.075705
                   11         12         13         14         15
    11  H    0.000000
    12  H    3.403756   0.000000
    13  C    3.159210   3.855815   0.000000
    14  H    4.119255   4.687467   1.091418   0.000000
    15  H    2.877355   4.449944   1.096704   1.775410   0.000000
    16  H    3.578733   3.533821   1.094116   1.775752   1.776168
                   16
    16  H    0.000000
 Stoichiometry    C3H10O2Si
 Framework group  C1[X(C3H10O2Si)]
 Deg. of freedom    42
 Full point group                 C1      NOp   1
 Largest Abelian subgroup         C1      NOp   1
 Largest concise Abelian subgroup C1      NOp   1
                         Standard orientation:                         
 ---------------------------------------------------------------------
 Center     Atomic      Atomic             Coordinates (Angstroms)
 Number     Number       Type             X           Y           Z
 ---------------------------------------------------------------------
      1          1           0       -3.149175   -1.316108   -0.452065
      2          6           0       -2.173610   -0.853193   -0.621274
      3          6           0       -1.564544   -0.333985    0.680473
      4          1           0       -2.326440   -0.047401   -1.345606
      5          1           0       -1.529088   -1.601151   -1.089633
      6          1           0       -2.225361    0.408068    1.142080
      7         14           0        0.116495    0.440588    0.489761
      8          1           0       -1.469708   -1.149653    1.405152
      9          8           0       -0.117533    1.695234   -0.553488
     10          8           0        1.101173   -0.757848   -0.050818
     11          1           0        0.648894    1.000679    1.758465
     12          1           0       -0.534109    1.501042   -1.393628
     13          6           0        2.487058   -0.603451   -0.248654
     14          1           0        2.902948   -1.569701   -0.539502
     15          1           0        2.988316   -0.271488    0.668570
     16          1           0        2.700244    0.122164   -1.039302
 ---------------------------------------------------------------------
 Rotational constants (GHZ):      4.1221002      1.8943156      1.5919279
 Standard basis: def2TZVP (5D, 7F)
 There are   252 symmetry adapted basis functions of A   symmetry.
 Integral buffers will be    131072 words long.
 Raffenetti 2 integral format.
 Two-electron integral symmetry is turned on.
   252 basis functions,   404 primitive gaussians,   282 cartesian basis functions
    29 alpha electrons       29 beta electrons
       nuclear repulsion energy       330.1183085584 Hartrees.
 NAtoms=   16 NActive=   16 NUniq=   16 SFac= 1.00D+00 NAtFMM=   60 NAOKFM=F Big=F
 One-electron integrals computed using PRISM.
   1 Symmetry operations used in ECPInt.
 ECPInt:  NShTT=    5886 NPrTT=   17754 LenC2=    5781 LenP2D=   13926.
 LDataN:  DoStor=T MaxTD1= 6 Len=  172
 NBasis=   252 RedAO= T  NBF=   252
 NBsUse=   252 1.00D-06 NBFU=   252
 Harris functional with IExCor= 1009 diagonalized for initial guess.
 ExpMin= 7.01D-02 ExpMax= 4.48D+04 ExpMxC= 1.53D+03 IAcc=2 IRadAn=         4 AccDes= 0.00D+00
 HarFok:  IExCor= 1009 AccDes= 0.00D+00 IRadAn=         4 IDoV= 1
 ScaDFX=  1.000000  1.000000  1.000000  1.000000
 FoFCou: FMM=F IPFlag=           0 FMFlag=      100000 FMFlg1=           0
         NFxFlg=           0 DoJE=T BraDBF=F KetDBF=T FulRan=T
         Omega=  0.000000  0.000000  1.000000  0.000000  0.000000 ICntrl=     500 IOpCl=  0
         NMat0=    1 NMatS0=    1 NMatT0=    0 NMatD0=    1 NMtDS0=    0 NMtDT0=    0
         I1Cent=           4 NGrid=           0.
 Petite list used in FoFCou.
 Initial guess orbital symmetries:
       Occupied  (A) (A) (A) (A) (A) (A) (A) (A) (A) (A) (A) (A)
                 (A) (A) (A) (A) (A) (A) (A) (A) (A) (A) (A) (A)
                 (A) (A) (A) (A) (A)
       Virtual   (A) (A) (A) (A) (A) (A) (A) (A) (A) (A) (A) (A)
                 (A) (A) (A) (A) (A) (A) (A) (A) (A) (A) (A) (A)
                 (A) (A) (A) (A) (A) (A) (A) (A) (A) (A) (A) (A)
                 (A) (A) (A) (A) (A) (A) (A) (A) (A) (A) (A) (A)
                 (A) (A) (A) (A) (A) (A) (A) (A) (A) (A) (A) (A)
                 (A) (A) (A) (A) (A) (A) (A) (A) (A) (A) (A) (A)
                 (A) (A) (A) (A) (A) (A) (A) (A) (A) (A) (A) (A)
                 (A) (A) (A) (A) (A) (A) (A) (A) (A) (A) (A) (A)
                 (A) (A) (A) (A) (A) (A) (A) (A) (A) (A) (A) (A)
                 (A) (A) (A) (A) (A) (A) (A) (A) (A) (A) (A) (A)
                 (A) (A) (A) (A) (A) (A) (A) (A) (A) (A) (A) (A)
                 (A) (A) (A) (A) (A) (A) (A) (A) (A) (A) (A) (A)
                 (A) (A) (A) (A) (A) (A) (A) (A) (A) (A) (A) (A)
                 (A) (A) (A) (A) (A) (A) (A) (A) (A) (A) (A) (A)
                 (A) (A) (A) (A) (A) (A) (A) (A) (A) (A) (A) (A)
                 (A) (A) (A) (A) (A) (A) (A) (A) (A) (A) (A) (A)
                 (A) (A) (A) (A) (A) (A) (A) (A) (A) (A) (A) (A)
                 (A) (A) (A) (A) (A) (A) (A) (A) (A) (A) (A) (A)
                 (A) (A) (A) (A) (A) (A) (A)
 The electronic state of the initial guess is 1-A.
 Requested convergence on RMS density matrix=1.00D-08 within 128 cycles.
 Requested convergence on MAX density matrix=1.00D-06.
 Requested convergence on             energy=1.00D-06.
 No special actions if energy rises.
 Integral accuracy reduced to 1.0D-05 until final iterations.
 Initial convergence to 1.0D-05 achieved.  Increase integral accuracy.
 SCF Done:  E(RPBE1PBE) =  -560.058590552     A.U. after   12 cycles
             Convg  =    0.8029D-08             -V/T =  2.0032

 **********************************************************************

            Population analysis using the SCF density.

 **********************************************************************

 Orbital symmetries:
       Occupied  (A) (A) (A) (A) (A) (A) (A) (A) (A) (A) (A) (A)
                 (A) (A) (A) (A) (A) (A) (A) (A) (A) (A) (A) (A)
                 (A) (A) (A) (A) (A)
       Virtual   (A) (A) (A) (A) (A) (A) (A) (A) (A) (A) (A) (A)
                 (A) (A) (A) (A) (A) (A) (A) (A) (A) (A) (A) (A)
                 (A) (A) (A) (A) (A) (A) (A) (A) (A) (A) (A) (A)
                 (A) (A) (A) (A) (A) (A) (A) (A) (A) (A) (A) (A)
                 (A) (A) (A) (A) (A) (A) (A) (A) (A) (A) (A) (A)
                 (A) (A) (A) (A) (A) (A) (A) (A) (A) (A) (A) (A)
                 (A) (A) (A) (A) (A) (A) (A) (A) (A) (A) (A) (A)
                 (A) (A) (A) (A) (A) (A) (A) (A) (A) (A) (A) (A)
                 (A) (A) (A) (A) (A) (A) (A) (A) (A) (A) (A) (A)
                 (A) (A) (A) (A) (A) (A) (A) (A) (A) (A) (A) (A)
                 (A) (A) (A) (A) (A) (A) (A) (A) (A) (A) (A) (A)
                 (A) (A) (A) (A) (A) (A) (A) (A) (A) (A) (A) (A)
                 (A) (A) (A) (A) (A) (A) (A) (A) (A) (A) (A) (A)
                 (A) (A) (A) (A) (A) (A) (A) (A) (A) (A) (A) (A)
                 (A) (A) (A) (A) (A) (A) (A) (A) (A) (A) (A) (A)
                 (A) (A) (A) (A) (A) (A) (A) (A) (A) (A) (A) (A)
                 (A) (A) (A) (A) (A) (A) (A) (A) (A) (A) (A) (A)
                 (A) (A) (A) (A) (A) (A) (A) (A) (A) (A) (A) (A)
                 (A) (A) (A) (A) (A) (A) (A)
 The electronic state is 1-A.
 Alpha  occ. eigenvalues --  -66.25505 -19.20464 -19.20034 -10.26755 -10.21574
 Alpha  occ. eigenvalues --  -10.20243  -5.33160  -3.66677  -3.66591  -3.66423
 Alpha  occ. eigenvalues --   -1.04647  -1.02355  -0.77867  -0.70814  -0.63804
 Alpha  occ. eigenvalues --   -0.56606  -0.51457  -0.47131  -0.46840  -0.45820
 Alpha  occ. eigenvalues --   -0.43537  -0.41098  -0.38780  -0.37250  -0.36510
 Alpha  occ. eigenvalues --   -0.35429  -0.32211  -0.30562  -0.29345
 Alpha virt. eigenvalues --    0.02373   0.05307   0.05952   0.08041   0.09002
 Alpha virt. eigenvalues --    0.09891   0.11118   0.11308   0.12063   0.13326
 Alpha virt. eigenvalues --    0.13629   0.15157   0.16467   0.17526   0.19596
 Alpha virt. eigenvalues --    0.21407   0.22229   0.23125   0.24994   0.25290
 Alpha virt. eigenvalues --    0.26679   0.28111   0.28832   0.29587   0.31236
 Alpha virt. eigenvalues --    0.32576   0.36107   0.38757   0.40078   0.40800
 Alpha virt. eigenvalues --    0.41947   0.42664   0.43792   0.45391   0.45686
 Alpha virt. eigenvalues --    0.46145   0.47346   0.47978   0.49305   0.50358
 Alpha virt. eigenvalues --    0.51498   0.53624   0.55461   0.57506   0.59795
 Alpha virt. eigenvalues --    0.60955   0.63978   0.66199   0.66761   0.67404
 Alpha virt. eigenvalues --    0.73356   0.73632   0.75607   0.78797   0.80248
 Alpha virt. eigenvalues --    0.83321   0.83578   0.86367   0.88477   0.91643
 Alpha virt. eigenvalues --    0.93320   0.95441   0.97237   0.99657   1.00076
 Alpha virt. eigenvalues --    1.04271   1.06509   1.07300   1.09545   1.11979
 Alpha virt. eigenvalues --    1.12900   1.13637   1.16501   1.18761   1.20675
 Alpha virt. eigenvalues --    1.24179   1.30193   1.32590   1.36678   1.40571
 Alpha virt. eigenvalues --    1.42547   1.46157   1.47644   1.49540   1.51945
 Alpha virt. eigenvalues --    1.52639   1.54260   1.55117   1.56955   1.58349
 Alpha virt. eigenvalues --    1.59488   1.62755   1.63730   1.64455   1.66191
 Alpha virt. eigenvalues --    1.69340   1.71624   1.75687   1.78065   1.78535
 Alpha virt. eigenvalues --    1.81383   1.82965   1.85995   1.87590   1.92517
 Alpha virt. eigenvalues --    1.95414   1.96212   1.98846   2.01050   2.03928
 Alpha virt. eigenvalues --    2.05590   2.08822   2.11952   2.12537   2.14393
 Alpha virt. eigenvalues --    2.17935   2.20380   2.26424   2.27509   2.30574
 Alpha virt. eigenvalues --    2.32021   2.33203   2.34123   2.34865   2.35908
 Alpha virt. eigenvalues --    2.36636   2.40086   2.43975   2.47446   2.49928
 Alpha virt. eigenvalues --    2.51173   2.51969   2.54635   2.55996   2.58164
 Alpha virt. eigenvalues --    2.60030   2.61164   2.65650   2.68515   2.71305
 Alpha virt. eigenvalues --    2.72885   2.78089   2.80402   2.82746   2.84867
 Alpha virt. eigenvalues --    2.85369   2.93896   2.94775   2.98859   3.01538
 Alpha virt. eigenvalues --    3.05446   3.09966   3.10497   3.11729   3.15219
 Alpha virt. eigenvalues --    3.21672   3.22732   3.24130   3.27830   3.30120
 Alpha virt. eigenvalues --    3.32123   3.32643   3.37741   3.40630   3.44432
 Alpha virt. eigenvalues --    3.45166   3.46029   3.47294   3.53353   3.54235
 Alpha virt. eigenvalues --    3.57912   3.61338   3.63377   3.65352   3.76962
 Alpha virt. eigenvalues --    3.81700   3.88991   3.93290   3.96191   4.03211
 Alpha virt. eigenvalues --    4.18636   4.24360   4.24827   4.34459   4.36552
 Alpha virt. eigenvalues --    4.41962   4.47390   4.53616   4.57288   4.79170
 Alpha virt. eigenvalues --    5.15974   5.17142   5.17457   5.18479   5.27850
 Alpha virt. eigenvalues --    5.29030   5.38465   5.41732   5.45730   5.50485
 Alpha virt. eigenvalues --    5.79695   5.86040   6.03161   6.23284   6.42578
 Alpha virt. eigenvalues --    6.44345   6.54883   6.58847   6.60424   6.64485
 Alpha virt. eigenvalues --    6.67151   6.77695   6.82341   6.95959   7.06241
 Alpha virt. eigenvalues --    7.16241   7.24918  11.94140  22.37204  22.41128
 Alpha virt. eigenvalues --   22.45936  43.63153  43.94750
          Condensed to atoms (all electrons):
              1          2          3          4          5          6
     1  H    0.549615   0.407494  -0.032721  -0.024217  -0.024414  -0.006907
     2  C    0.407494   4.946784   0.310600   0.399404   0.412097  -0.028106
     3  C   -0.032721   0.310600   5.025535  -0.045915  -0.039717   0.387498
     4  H   -0.024217   0.399404  -0.045915   0.595617  -0.028796  -0.005267
     5  H   -0.024414   0.412097  -0.039717  -0.028796   0.535983   0.007801
     6  H   -0.006907  -0.028106   0.387498  -0.005267   0.007801   0.580893
     7  Si   0.008163  -0.019020   0.440537  -0.008943  -0.008148  -0.028827
     8  H   -0.006767  -0.027685   0.365968   0.009653  -0.004079  -0.027041
     9  O    0.000167  -0.004196  -0.042329   0.005973  -0.000547  -0.001901
    10  O    0.000022  -0.005198  -0.031081   0.000762   0.007444   0.001282
    11  H   -0.000096   0.001749  -0.033696   0.000198   0.000410   0.001320
    12  H   -0.000117   0.001319  -0.002341   0.003142  -0.000019   0.000118
    13  C    0.000012  -0.000136   0.002511   0.000091  -0.000078  -0.000139
    14  H   -0.000004   0.000212  -0.000468  -0.000001  -0.000156   0.000000
    15  H    0.000001  -0.000045  -0.000007   0.000001   0.000081   0.000000
    16  H    0.000000  -0.000077   0.000776  -0.000029   0.000008   0.000017
              7          8          9         10         11         12
     1  H    0.008163  -0.006767   0.000167   0.000022  -0.000096  -0.000117
     2  C   -0.019020  -0.027685  -0.004196  -0.005198   0.001749   0.001319
     3  C    0.440537   0.365968  -0.042329  -0.031081  -0.033696  -0.002341
     4  H   -0.008943   0.009653   0.005973   0.000762   0.000198   0.003142
     5  H   -0.008148  -0.004079  -0.000547   0.007444   0.000410  -0.000019
     6  H   -0.028827  -0.027041  -0.001901   0.001282   0.001320   0.000118
     7  Si  11.889659  -0.020131   0.455215   0.444686   0.392156  -0.028208
     8  H   -0.020131   0.593098   0.003110   0.002377   0.001073  -0.000059
     9  O    0.455215   0.003110   7.853752  -0.031332  -0.012553   0.303780
    10  O    0.444686   0.002377  -0.031332   7.841231  -0.025692  -0.001214
    11  H    0.392156   0.001073  -0.012553  -0.025692   0.717577   0.003285
    12  H   -0.028208  -0.000059   0.303780  -0.001214   0.003285   0.399322
    13  C   -0.047736   0.000077  -0.004510   0.259216   0.002005   0.000406
    14  H    0.007597   0.000005   0.000031  -0.041425  -0.000210   0.000016
    15  H   -0.018508  -0.000016  -0.000452  -0.042040   0.009682  -0.000038
    16  H   -0.004208  -0.000026   0.004967  -0.043623  -0.001962   0.000316
             13         14         15         16
     1  H    0.000012  -0.000004   0.000001   0.000000
     2  C   -0.000136   0.000212  -0.000045  -0.000077
     3  C    0.002511  -0.000468  -0.000007   0.000776
     4  H    0.000091  -0.000001   0.000001  -0.000029
     5  H   -0.000078  -0.000156   0.000081   0.000008
     6  H   -0.000139   0.000000   0.000000   0.000017
     7  Si  -0.047736   0.007597  -0.018508  -0.004208
     8  H    0.000077   0.000005  -0.000016  -0.000026
     9  O   -0.004510   0.000031  -0.000452   0.004967
    10  O    0.259216  -0.041425  -0.042040  -0.043623
    11  H    0.002005  -0.000210   0.009682  -0.001962
    12  H    0.000406   0.000016  -0.000038   0.000316
    13  C    4.771516   0.403174   0.417977   0.412987
    14  H    0.403174   0.563651  -0.029604  -0.032928
    15  H    0.417977  -0.029604   0.592840  -0.048604
    16  H    0.412987  -0.032928  -0.048604   0.589609
 Mulliken atomic charges:
              1
     1  H    0.129768
     2  C   -0.395195
     3  C   -0.305149
     4  H    0.098328
     5  H    0.142130
     6  H    0.119258
     7  Si   0.545715
     8  H    0.110443
     9  O   -0.529175
    10  O   -0.335414
    11  H   -0.055246
    12  H    0.320290
    13  C   -0.217373
    14  H    0.130110
    15  H    0.118732
    16  H    0.122778
 Sum of Mulliken atomic charges =   0.00000
 Mulliken charges with hydrogens summed into heavy atoms:
              1
     2  C   -0.024969
     3  C   -0.075448
     7  Si   0.490469
     9  O   -0.208884
    10  O   -0.335414
    13  C    0.154247
 Sum of Mulliken charges with hydrogens summed into heavy atoms =   0.00000
 Electronic spatial extent (au):  <R**2>=            863.4531
 Charge=              0.0000 electrons
 Dipole moment (field-independent basis, Debye):
    X=              0.1284    Y=             -0.6034    Z=             -0.7383  Tot=              0.9621
 Quadrupole moment (field-independent basis, Debye-Ang):
   XX=            -40.7599   YY=            -49.5788   ZZ=            -43.0080
   XY=             -1.0448   XZ=              0.2869   YZ=             -1.1572
 Traceless Quadrupole moment (field-independent basis, Debye-Ang):
   XX=              3.6890   YY=             -5.1299   ZZ=              1.4409
   XY=             -1.0448   XZ=              0.2869   YZ=             -1.1572
 Octapole moment (field-independent basis, Debye-Ang**2):
  XXX=             15.2986  YYY=             -6.9472  ZZZ=             -9.9343  XYY=              0.3158
  XXY=             -0.7838  XXZ=             -2.5291  XZZ=             -0.1951  YZZ=              4.4741
  YYZ=             -2.2365  XYZ=              2.2971
 Hexadecapole moment (field-independent basis, Debye-Ang**3):
 XXXX=           -702.1736 YYYY=           -288.3241 ZZZZ=           -167.2775 XXXY=            -14.4981
 XXXZ=             -5.8993 YYYX=            -10.9006 YYYZ=             -4.1780 ZZZX=              0.3566
 ZZZY=            -17.4621 XXYY=           -160.5989 XXZZ=           -150.3172 YYZZ=            -67.2901
 XXYZ=             -1.6952 YYXZ=             -0.5078 ZZXY=             -7.5143
 N-N= 3.301183085584D+02 E-N=-1.984212399400D+03  KE= 5.582464727221D+02
 1\1\GINC-TARSUS4\SP\RPBE1PBE\def2TZVP\C3H10O2Si1\RENATO\08-Aug-2018\0\
 \#SP PBE1PBE/Def2TZVP geom=connectivity\\Structure: 43\\0,1\H,0,0.,0.,
 0.\C,0,1.093,0.,0.\C,0,1.655,1.421,0.\H,0,1.41,-0.56,-0.885\H,0,1.424,
 -0.557,0.88\H,0,1.308,1.969,-0.883\Si,0,3.513,1.515,0.035\H,0,1.282,1.
 975,0.868\O,0,3.997,0.726,-1.329\O,0,3.968,0.824,1.454\H,0,4.029,2.906
 ,-0.04\H,0,3.673,-0.165,-1.464\C,0,5.301,0.766,1.905\H,0,5.308,0.322,2
 .902\H,0,5.747,1.766,1.967\H,0,5.921,0.153,1.244\\Version=EM64L-G09Rev
 C.01\State=1-A\HF=-560.0585906\RMSD=8.029e-09\Dipole=-0.0104768,-0.327
 0161,0.1903264\Quadrupole=0.9930995,0.5650698,-1.5581693,-0.6048638,2.
 8012654,1.7080534\PG=C01 [X(C3H10O2Si1)]\\@


 WISDOM IS KNOWING WHAT TO DO,
 SKILL IS KNOWING HOW TO DO IT,
 AND VIRTUE IS NOT DOING IT.
 Job cpu time:  0 days  0 hours 12 minutes 49.6 seconds.
 File lengths (MBytes):  RWF=     40 Int=      0 D2E=      0 Chk=      3 Scr=      1
 Normal termination of Gaussian 09 at Wed Aug  8 16:03:39 2018.
