 Entering Gaussian System, Link 0=g09
 Initial command:
 /usr/local/gaussian09/g09/l1.exe /scratch/renato/Gau-8484.inp -scrdir=/scratch/renato/
 Entering Link 1 = /usr/local/gaussian09/g09/l1.exe PID=      8486.
  
 Copyright (c) 1988,1990,1992,1993,1995,1998,2003,2009,2011,
            Gaussian, Inc.  All Rights Reserved.
  
 This is part of the Gaussian(R) 09 program.  It is based on
 the Gaussian(R) 03 system (copyright 2003, Gaussian, Inc.),
 the Gaussian(R) 98 system (copyright 1998, Gaussian, Inc.),
 the Gaussian(R) 94 system (copyright 1995, Gaussian, Inc.),
 the Gaussian 92(TM) system (copyright 1992, Gaussian, Inc.),
 the Gaussian 90(TM) system (copyright 1990, Gaussian, Inc.),
 the Gaussian 88(TM) system (copyright 1988, Gaussian, Inc.),
 the Gaussian 86(TM) system (copyright 1986, Carnegie Mellon
 University), and the Gaussian 82(TM) system (copyright 1983,
 Carnegie Mellon University). Gaussian is a federally registered
 trademark of Gaussian, Inc.
  
 This software contains proprietary and confidential information,
 including trade secrets, belonging to Gaussian, Inc.
  
 This software is provided under written license and may be
 used, copied, transmitted, or stored only in accord with that
 written license.
  
 The following legend is applicable only to US Government
 contracts under FAR:
  
                    RESTRICTED RIGHTS LEGEND
  
 Use, reproduction and disclosure by the US Government is
 subject to restrictions as set forth in subparagraphs (a)
 and (c) of the Commercial Computer Software - Restricted
 Rights clause in FAR 52.227-19.
  
 Gaussian, Inc.
 340 Quinnipiac St., Bldg. 40, Wallingford CT 06492
  
  
 ---------------------------------------------------------------
 Warning -- This program may not be used in any manner that
 competes with the business of Gaussian, Inc. or will provide
 assistance to any competitor of Gaussian, Inc.  The licensee
 of this program is prohibited from giving any competitor of
 Gaussian, Inc. access to this program.  By using this program,
 the user acknowledges that Gaussian, Inc. is engaged in the
 business of creating and licensing software in the field of
 computational chemistry and represents and warrants to the
 licensee that it is not a competitor of Gaussian, Inc. and that
 it will not use this program in any manner prohibited above.
 ---------------------------------------------------------------
  

 Cite this work as:
 Gaussian 09, Revision C.01,
 M. J. Frisch, G. W. Trucks, H. B. Schlegel, G. E. Scuseria, 
 M. A. Robb, J. R. Cheeseman, G. Scalmani, V. Barone, B. Mennucci, 
 G. A. Petersson, H. Nakatsuji, M. Caricato, X. Li, H. P. Hratchian, 
 A. F. Izmaylov, J. Bloino, G. Zheng, J. L. Sonnenberg, M. Hada, 
 M. Ehara, K. Toyota, R. Fukuda, J. Hasegawa, M. Ishida, T. Nakajima, 
 Y. Honda, O. Kitao, H. Nakai, T. Vreven, J. A. Montgomery, Jr., 
 J. E. Peralta, F. Ogliaro, M. Bearpark, J. J. Heyd, E. Brothers, 
 K. N. Kudin, V. N. Staroverov, T. Keith, R. Kobayashi, J. Normand, 
 K. Raghavachari, A. Rendell, J. C. Burant, S. S. Iyengar, J. Tomasi, 
 M. Cossi, N. Rega, J. M. Millam, M. Klene, J. E. Knox, J. B. Cross, 
 V. Bakken, C. Adamo, J. Jaramillo, R. Gomperts, R. E. Stratmann, 
 O. Yazyev, A. J. Austin, R. Cammi, C. Pomelli, J. W. Ochterski, 
 R. L. Martin, K. Morokuma, V. G. Zakrzewski, G. A. Voth, 
 P. Salvador, J. J. Dannenberg, S. Dapprich, A. D. Daniels, 
 O. Farkas, J. B. Foresman, J. V. Ortiz, J. Cioslowski, 
 and D. J. Fox, Gaussian, Inc., Wallingford CT, 2010.
 
 ******************************************
 Gaussian 09:  EM64L-G09RevC.01 23-Sep-2011
                 8-Aug-2018 
 ******************************************
 %nproc=2
 Will use up to    2 processors via shared memory.
 %mem=256MB
 %RWF=a13.rwf
 %chk=a1350
 %NoSave
 --------------------------------------
 #SP PBE1PBE/Def2TZVP geom=connectivity
 --------------------------------------
 1/38=1,57=2/1;
 2/12=2,17=6,18=5,40=1/2;
 3/5=44,7=101,11=2,16=1,25=1,30=1,74=-13/1,2,3;
 4//1;
 5/5=2,38=5/2;
 6/7=2,8=2,9=2,10=2,28=1/1;
 99/5=1,9=1/99;
 -------------
 Structure: 50
 -------------
 Charge =  0 Multiplicity = 1
 Symbolic Z-Matrix:
 H                     0.        0.        0. 
 C                     1.093     0.        0. 
 C                     1.655     1.421     0. 
 H                     1.41     -0.56     -0.885 
 H                     1.424    -0.557     0.88 
 H                     1.308     1.969    -0.883 
 Si                    3.513     1.515     0.035 
 H                     1.282     1.975     0.868 
 O                     4.061     0.739    -1.312 
 O                     3.968     0.824     1.454 
 H                     4.029     2.906    -0.04 
 H                     3.76     -0.159    -1.459 
 C                     5.301     0.766     1.905 
 H                     5.308     0.322     2.902 
 H                     5.747     1.766     1.967 
 H                     5.921     0.153     1.244 
 
                          Input orientation:                          
 ---------------------------------------------------------------------
 Center     Atomic      Atomic             Coordinates (Angstroms)
 Number     Number       Type             X           Y           Z
 ---------------------------------------------------------------------
      1          1           0        0.000000    0.000000    0.000000
      2          6           0        1.093000    0.000000    0.000000
      3          6           0        1.655000    1.421000    0.000000
      4          1           0        1.410000   -0.560000   -0.885000
      5          1           0        1.424000   -0.557000    0.880000
      6          1           0        1.308000    1.969000   -0.883000
      7         14           0        3.513000    1.515000    0.035000
      8          1           0        1.282000    1.975000    0.868000
      9          8           0        4.061000    0.739000   -1.312000
     10          8           0        3.968000    0.824000    1.454000
     11          1           0        4.029000    2.906000   -0.040000
     12          1           0        3.760000   -0.159000   -1.459000
     13          6           0        5.301000    0.766000    1.905000
     14          1           0        5.308000    0.322000    2.902000
     15          1           0        5.747000    1.766000    1.967000
     16          1           0        5.921000    0.153000    1.244000
 ---------------------------------------------------------------------
                    Distance matrix (angstroms):
                    1          2          3          4          5
     1  H    0.000000
     2  C    1.093000   0.000000
     3  C    2.181345   1.528098   0.000000
     4  H    1.756395   1.094218   2.183486   0.000000
     5  H    1.764207   1.092799   2.177210   1.765058   0.000000
     6  H    2.523393   2.168611   1.095629   2.531057   3.082580
     7  Si   3.825914   2.855320   1.860706   3.094291   3.061230
     8  H    2.509497   2.165588   1.095203   3.084740   2.536007
     9  O    4.331188   3.328136   2.824058   2.982873   3.665822
    10  O    4.305591   3.325465   2.796515   3.732257   2.951029
    11  H    4.967824   4.131166   2.800482   4.425646   4.429988
    12  H    4.036281   3.044150   3.009336   2.452096   3.329598
    13  C    5.684750   4.682205   4.165497   4.968124   4.222805
    14  H    6.058065   5.127525   4.793101   5.505788   4.466160
    15  H    6.325809   5.352342   4.553304   5.688036   5.026552
    16  H    6.052205   4.988039   4.621051   5.038862   4.567232
                    6          7          8          9         10
     6  H    0.000000
     7  Si   2.431227   0.000000
     8  H    1.751203   2.425459   0.000000
     9  O    3.045644   1.648299   3.742050   0.000000
    10  O    3.721316   1.642579   2.980401   2.768868   0.000000
    11  H    2.998743   1.485517   3.039282   2.512946   2.563295
    12  H    3.297342   2.257282   4.013648   0.958444   3.081416
    13  C    5.016393   2.693482   4.323125   3.447814   1.408423
    14  H    5.747942   3.586776   4.803982   4.414374   2.035757
    15  H    5.279056   2.964183   4.603011   3.827423   2.077348
    16  H    5.394604   3.019137   4.998138   3.214986   2.075705
                   11         12         13         14         15
    11  H    0.000000
    12  H    3.388237   0.000000
    13  C    3.159210   3.814027   0.000000
    14  H    4.119255   4.652525   1.091418   0.000000
    15  H    2.877355   4.403552   1.096704   1.775410   0.000000
    16  H    3.578733   3.474690   1.094116   1.775752   1.776168
                   16
    16  H    0.000000
 Stoichiometry    C3H10O2Si
 Framework group  C1[X(C3H10O2Si)]
 Deg. of freedom    42
 Full point group                 C1      NOp   1
 Largest Abelian subgroup         C1      NOp   1
 Largest concise Abelian subgroup C1      NOp   1
                         Standard orientation:                         
 ---------------------------------------------------------------------
 Center     Atomic      Atomic             Coordinates (Angstroms)
 Number     Number       Type             X           Y           Z
 ---------------------------------------------------------------------
      1          1           0       -3.172233   -1.283268   -0.466097
      2          6           0       -2.191087   -0.830730   -0.631053
      3          6           0       -1.580928   -0.320608    0.673771
      4          1           0       -2.332582   -0.021983   -1.354393
      5          1           0       -1.553143   -1.584822   -1.098582
      6          1           0       -2.235207    0.427769    1.134480
      7         14           0        0.109124    0.435901    0.490342
      8          1           0       -1.497532   -1.138598    1.397239
      9          8           0       -0.041749    1.708872   -0.545839
     10          8           0        1.082534   -0.772225   -0.049075
     11          1           0        0.643182    0.987801    1.761935
     12          1           0       -0.442577    1.539616   -1.399832
     13          6           0        2.470704   -0.632617   -0.241816
     14          1           0        2.877028   -1.602815   -0.533038
     15          1           0        2.972357   -0.307841    0.677762
     16          1           0        2.694556    0.092082   -1.030355
 ---------------------------------------------------------------------
 Rotational constants (GHZ):      4.0941903      1.8973285      1.5889962
 Standard basis: def2TZVP (5D, 7F)
 There are   252 symmetry adapted basis functions of A   symmetry.
 Integral buffers will be    131072 words long.
 Raffenetti 2 integral format.
 Two-electron integral symmetry is turned on.
   252 basis functions,   404 primitive gaussians,   282 cartesian basis functions
    29 alpha electrons       29 beta electrons
       nuclear repulsion energy       329.9311241958 Hartrees.
 NAtoms=   16 NActive=   16 NUniq=   16 SFac= 1.00D+00 NAtFMM=   60 NAOKFM=F Big=F
 One-electron integrals computed using PRISM.
   1 Symmetry operations used in ECPInt.
 ECPInt:  NShTT=    5886 NPrTT=   17754 LenC2=    5782 LenP2D=   13923.
 LDataN:  DoStor=T MaxTD1= 6 Len=  172
 NBasis=   252 RedAO= T  NBF=   252
 NBsUse=   252 1.00D-06 NBFU=   252
 Harris functional with IExCor= 1009 diagonalized for initial guess.
 ExpMin= 7.01D-02 ExpMax= 4.48D+04 ExpMxC= 1.53D+03 IAcc=2 IRadAn=         4 AccDes= 0.00D+00
 HarFok:  IExCor= 1009 AccDes= 0.00D+00 IRadAn=         4 IDoV= 1
 ScaDFX=  1.000000  1.000000  1.000000  1.000000
 FoFCou: FMM=F IPFlag=           0 FMFlag=      100000 FMFlg1=           0
         NFxFlg=           0 DoJE=T BraDBF=F KetDBF=T FulRan=T
         Omega=  0.000000  0.000000  1.000000  0.000000  0.000000 ICntrl=     500 IOpCl=  0
         NMat0=    1 NMatS0=    1 NMatT0=    0 NMatD0=    1 NMtDS0=    0 NMtDT0=    0
         I1Cent=           4 NGrid=           0.
 Petite list used in FoFCou.
 Initial guess orbital symmetries:
       Occupied  (A) (A) (A) (A) (A) (A) (A) (A) (A) (A) (A) (A)
                 (A) (A) (A) (A) (A) (A) (A) (A) (A) (A) (A) (A)
                 (A) (A) (A) (A) (A)
       Virtual   (A) (A) (A) (A) (A) (A) (A) (A) (A) (A) (A) (A)
                 (A) (A) (A) (A) (A) (A) (A) (A) (A) (A) (A) (A)
                 (A) (A) (A) (A) (A) (A) (A) (A) (A) (A) (A) (A)
                 (A) (A) (A) (A) (A) (A) (A) (A) (A) (A) (A) (A)
                 (A) (A) (A) (A) (A) (A) (A) (A) (A) (A) (A) (A)
                 (A) (A) (A) (A) (A) (A) (A) (A) (A) (A) (A) (A)
                 (A) (A) (A) (A) (A) (A) (A) (A) (A) (A) (A) (A)
                 (A) (A) (A) (A) (A) (A) (A) (A) (A) (A) (A) (A)
                 (A) (A) (A) (A) (A) (A) (A) (A) (A) (A) (A) (A)
                 (A) (A) (A) (A) (A) (A) (A) (A) (A) (A) (A) (A)
                 (A) (A) (A) (A) (A) (A) (A) (A) (A) (A) (A) (A)
                 (A) (A) (A) (A) (A) (A) (A) (A) (A) (A) (A) (A)
                 (A) (A) (A) (A) (A) (A) (A) (A) (A) (A) (A) (A)
                 (A) (A) (A) (A) (A) (A) (A) (A) (A) (A) (A) (A)
                 (A) (A) (A) (A) (A) (A) (A) (A) (A) (A) (A) (A)
                 (A) (A) (A) (A) (A) (A) (A) (A) (A) (A) (A) (A)
                 (A) (A) (A) (A) (A) (A) (A) (A) (A) (A) (A) (A)
                 (A) (A) (A) (A) (A) (A) (A) (A) (A) (A) (A) (A)
                 (A) (A) (A) (A) (A) (A) (A)
 The electronic state of the initial guess is 1-A.
 Requested convergence on RMS density matrix=1.00D-08 within 128 cycles.
 Requested convergence on MAX density matrix=1.00D-06.
 Requested convergence on             energy=1.00D-06.
 No special actions if energy rises.
 Integral accuracy reduced to 1.0D-05 until final iterations.
 Initial convergence to 1.0D-05 achieved.  Increase integral accuracy.
 SCF Done:  E(RPBE1PBE) =  -560.059938932     A.U. after   12 cycles
             Convg  =    0.7104D-08             -V/T =  2.0033

 **********************************************************************

            Population analysis using the SCF density.

 **********************************************************************

 Orbital symmetries:
       Occupied  (A) (A) (A) (A) (A) (A) (A) (A) (A) (A) (A) (A)
                 (A) (A) (A) (A) (A) (A) (A) (A) (A) (A) (A) (A)
                 (A) (A) (A) (A) (A)
       Virtual   (A) (A) (A) (A) (A) (A) (A) (A) (A) (A) (A) (A)
                 (A) (A) (A) (A) (A) (A) (A) (A) (A) (A) (A) (A)
                 (A) (A) (A) (A) (A) (A) (A) (A) (A) (A) (A) (A)
                 (A) (A) (A) (A) (A) (A) (A) (A) (A) (A) (A) (A)
                 (A) (A) (A) (A) (A) (A) (A) (A) (A) (A) (A) (A)
                 (A) (A) (A) (A) (A) (A) (A) (A) (A) (A) (A) (A)
                 (A) (A) (A) (A) (A) (A) (A) (A) (A) (A) (A) (A)
                 (A) (A) (A) (A) (A) (A) (A) (A) (A) (A) (A) (A)
                 (A) (A) (A) (A) (A) (A) (A) (A) (A) (A) (A) (A)
                 (A) (A) (A) (A) (A) (A) (A) (A) (A) (A) (A) (A)
                 (A) (A) (A) (A) (A) (A) (A) (A) (A) (A) (A) (A)
                 (A) (A) (A) (A) (A) (A) (A) (A) (A) (A) (A) (A)
                 (A) (A) (A) (A) (A) (A) (A) (A) (A) (A) (A) (A)
                 (A) (A) (A) (A) (A) (A) (A) (A) (A) (A) (A) (A)
                 (A) (A) (A) (A) (A) (A) (A) (A) (A) (A) (A) (A)
                 (A) (A) (A) (A) (A) (A) (A) (A) (A) (A) (A) (A)
                 (A) (A) (A) (A) (A) (A) (A) (A) (A) (A) (A) (A)
                 (A) (A) (A) (A) (A) (A) (A) (A) (A) (A) (A) (A)
                 (A) (A) (A) (A) (A) (A) (A)
 The electronic state is 1-A.
 Alpha  occ. eigenvalues --  -66.25461 -19.20337 -19.20119 -10.26669 -10.21616
 Alpha  occ. eigenvalues --  -10.20423  -5.33118  -3.66636  -3.66544  -3.66384
 Alpha  occ. eigenvalues --   -1.04579  -1.02344  -0.77964  -0.70731  -0.63872
 Alpha  occ. eigenvalues --   -0.56629  -0.51378  -0.47048  -0.46775  -0.45859
 Alpha  occ. eigenvalues --   -0.43547  -0.41045  -0.38876  -0.37251  -0.36535
 Alpha  occ. eigenvalues --   -0.35511  -0.32116  -0.30498  -0.29505
 Alpha virt. eigenvalues --    0.02370   0.05391   0.05986   0.08043   0.08993
 Alpha virt. eigenvalues --    0.10003   0.11129   0.11230   0.12130   0.13399
 Alpha virt. eigenvalues --    0.13698   0.15175   0.16396   0.17262   0.19485
 Alpha virt. eigenvalues --    0.21362   0.22188   0.23238   0.24928   0.25180
 Alpha virt. eigenvalues --    0.26664   0.28375   0.28815   0.29485   0.31311
 Alpha virt. eigenvalues --    0.32521   0.36280   0.38895   0.40050   0.40771
 Alpha virt. eigenvalues --    0.41935   0.42634   0.43859   0.45358   0.45696
 Alpha virt. eigenvalues --    0.46111   0.47382   0.47942   0.49527   0.50395
 Alpha virt. eigenvalues --    0.51459   0.53482   0.55370   0.57331   0.60101
 Alpha virt. eigenvalues --    0.60783   0.63644   0.66112   0.66516   0.67397
 Alpha virt. eigenvalues --    0.73638   0.73772   0.75466   0.78559   0.80594
 Alpha virt. eigenvalues --    0.83359   0.83504   0.86371   0.88224   0.91717
 Alpha virt. eigenvalues --    0.93234   0.95472   0.97160   0.99624   1.00295
 Alpha virt. eigenvalues --    1.04265   1.06695   1.07585   1.09409   1.12007
 Alpha virt. eigenvalues --    1.12754   1.13315   1.16190   1.18958   1.20825
 Alpha virt. eigenvalues --    1.24255   1.29627   1.32609   1.36571   1.40783
 Alpha virt. eigenvalues --    1.42408   1.46273   1.47783   1.49545   1.52163
 Alpha virt. eigenvalues --    1.52759   1.54367   1.55158   1.56779   1.58257
 Alpha virt. eigenvalues --    1.59302   1.62822   1.63595   1.64363   1.66106
 Alpha virt. eigenvalues --    1.69133   1.71551   1.75660   1.78283   1.78566
 Alpha virt. eigenvalues --    1.81109   1.83075   1.85757   1.88024   1.92250
 Alpha virt. eigenvalues --    1.95403   1.95980   1.99444   2.01047   2.04010
 Alpha virt. eigenvalues --    2.05472   2.08596   2.11747   2.12351   2.14586
 Alpha virt. eigenvalues --    2.17979   2.19669   2.26398   2.28012   2.30483
 Alpha virt. eigenvalues --    2.32134   2.33187   2.34103   2.34946   2.35810
 Alpha virt. eigenvalues --    2.36465   2.40151   2.43887   2.47508   2.49729
 Alpha virt. eigenvalues --    2.51309   2.51712   2.54635   2.56048   2.58158
 Alpha virt. eigenvalues --    2.59927   2.61170   2.65553   2.68105   2.71095
 Alpha virt. eigenvalues --    2.72868   2.77815   2.80293   2.82833   2.84939
 Alpha virt. eigenvalues --    2.85534   2.93852   2.94346   2.99345   3.01463
 Alpha virt. eigenvalues --    3.05771   3.09692   3.10558   3.11686   3.15197
 Alpha virt. eigenvalues --    3.21543   3.22654   3.23840   3.27647   3.30046
 Alpha virt. eigenvalues --    3.32048   3.32633   3.37698   3.40528   3.44490
 Alpha virt. eigenvalues --    3.45023   3.45974   3.47070   3.53528   3.53844
 Alpha virt. eigenvalues --    3.58044   3.61586   3.63002   3.65259   3.76862
 Alpha virt. eigenvalues --    3.81613   3.88558   3.93144   3.96051   4.03177
 Alpha virt. eigenvalues --    4.18764   4.24376   4.24843   4.34381   4.36654
 Alpha virt. eigenvalues --    4.41858   4.47266   4.53567   4.57257   4.79011
 Alpha virt. eigenvalues --    5.15870   5.17054   5.17599   5.18350   5.27987
 Alpha virt. eigenvalues --    5.29153   5.38483   5.41732   5.45614   5.50258
 Alpha virt. eigenvalues --    5.79755   5.86205   6.03284   6.22891   6.42420
 Alpha virt. eigenvalues --    6.43854   6.54510   6.58941   6.60395   6.64890
 Alpha virt. eigenvalues --    6.67283   6.78077   6.82212   6.96094   7.06043
 Alpha virt. eigenvalues --    7.16123   7.24176  11.93742  22.37135  22.41098
 Alpha virt. eigenvalues --   22.45706  43.62779  43.94678
          Condensed to atoms (all electrons):
              1          2          3          4          5          6
     1  H    0.550021   0.407693  -0.032915  -0.024517  -0.024491  -0.006906
     2  C    0.407693   4.945175   0.311636   0.399785   0.412356  -0.028437
     3  C   -0.032915   0.311636   5.027238  -0.045498  -0.039699   0.387432
     4  H   -0.024517   0.399785  -0.045498   0.592425  -0.028454  -0.005178
     5  H   -0.024491   0.412356  -0.039699  -0.028454   0.535378   0.007791
     6  H   -0.006906  -0.028437   0.387432  -0.005178   0.007791   0.580133
     7  Si   0.008062  -0.019095   0.435339  -0.007936  -0.008219  -0.028801
     8  H   -0.006789  -0.027873   0.367339   0.009426  -0.004090  -0.026895
     9  O    0.000113  -0.003815  -0.040793   0.005646  -0.000508  -0.001611
    10  O    0.000021  -0.005168  -0.031233   0.000669   0.007480   0.001287
    11  H   -0.000101   0.001758  -0.034012   0.000201   0.000410   0.001332
    12  H   -0.000108   0.000968  -0.002232   0.002828  -0.000002   0.000101
    13  C    0.000011  -0.000120   0.002364   0.000094  -0.000075  -0.000135
    14  H   -0.000004   0.000215  -0.000456  -0.000002  -0.000158   0.000000
    15  H    0.000001  -0.000044  -0.000017   0.000000   0.000081   0.000002
    16  H    0.000000  -0.000091   0.000795  -0.000025   0.000009   0.000016
              7          8          9         10         11         12
     1  H    0.008062  -0.006789   0.000113   0.000021  -0.000101  -0.000108
     2  C   -0.019095  -0.027873  -0.003815  -0.005168   0.001758   0.000968
     3  C    0.435339   0.367339  -0.040793  -0.031233  -0.034012  -0.002232
     4  H   -0.007936   0.009426   0.005646   0.000669   0.000201   0.002828
     5  H   -0.008219  -0.004090  -0.000508   0.007480   0.000410  -0.000002
     6  H   -0.028801  -0.026895  -0.001611   0.001287   0.001332   0.000101
     7  Si  11.889271  -0.018194   0.458884   0.446200   0.391943  -0.028083
     8  H   -0.018194   0.588525   0.002702   0.002224   0.001003  -0.000047
     9  O    0.458884   0.002702   7.852195  -0.032437  -0.013539   0.302511
    10  O    0.446200   0.002224  -0.032437   7.841810  -0.025921  -0.001170
    11  H    0.391943   0.001003  -0.013539  -0.025921   0.721426   0.003513
    12  H   -0.028083  -0.000047   0.302511  -0.001170   0.003513   0.400682
    13  C   -0.048350   0.000078  -0.005134   0.259996   0.002123   0.000490
    14  H    0.007643   0.000004   0.000045  -0.041350  -0.000214   0.000017
    15  H   -0.018297  -0.000017  -0.000461  -0.042219   0.009819  -0.000036
    16  H   -0.004314  -0.000023   0.005434  -0.043693  -0.001974   0.000315
             13         14         15         16
     1  H    0.000011  -0.000004   0.000001   0.000000
     2  C   -0.000120   0.000215  -0.000044  -0.000091
     3  C    0.002364  -0.000456  -0.000017   0.000795
     4  H    0.000094  -0.000002   0.000000  -0.000025
     5  H   -0.000075  -0.000158   0.000081   0.000009
     6  H   -0.000135   0.000000   0.000002   0.000016
     7  Si  -0.048350   0.007643  -0.018297  -0.004314
     8  H    0.000078   0.000004  -0.000017  -0.000023
     9  O   -0.005134   0.000045  -0.000461   0.005434
    10  O    0.259996  -0.041350  -0.042219  -0.043693
    11  H    0.002123  -0.000214   0.009819  -0.001974
    12  H    0.000490   0.000017  -0.000036   0.000315
    13  C    4.770687   0.402970   0.418013   0.412782
    14  H    0.402970   0.564519  -0.029820  -0.033128
    15  H    0.418013  -0.029820   0.592958  -0.048372
    16  H    0.412782  -0.033128  -0.048372   0.590213
 Mulliken atomic charges:
              1
     1  H    0.129908
     2  C   -0.394942
     3  C   -0.305287
     4  H    0.100534
     5  H    0.142193
     6  H    0.119870
     7  Si   0.543945
     8  H    0.112627
     9  O   -0.529232
    10  O   -0.336495
    11  H   -0.057767
    12  H    0.320255
    13  C   -0.215795
    14  H    0.129720
    15  H    0.118409
    16  H    0.122057
 Sum of Mulliken atomic charges =   0.00000
 Mulliken charges with hydrogens summed into heavy atoms:
              1
     2  C   -0.022307
     3  C   -0.072790
     7  Si   0.486178
     9  O   -0.208977
    10  O   -0.336495
    13  C    0.154391
 Sum of Mulliken charges with hydrogens summed into heavy atoms =   0.00000
 Electronic spatial extent (au):  <R**2>=            864.5144
 Charge=              0.0000 electrons
 Dipole moment (field-independent basis, Debye):
    X=              0.0078    Y=             -0.6012    Z=             -0.7832  Tot=              0.9873
 Quadrupole moment (field-independent basis, Debye-Ang):
   XX=            -40.8768   YY=            -49.5064   ZZ=            -42.9550
   XY=             -1.2331   XZ=              0.1606   YZ=             -1.3503
 Traceless Quadrupole moment (field-independent basis, Debye-Ang):
   XX=              3.5693   YY=             -5.0603   ZZ=              1.4910
   XY=             -1.2331   XZ=              0.1606   YZ=             -1.3503
 Octapole moment (field-independent basis, Debye-Ang**2):
  XXX=             15.1173  YYY=             -6.8129  ZZZ=            -10.1711  XYY=             -0.0795
  XXY=             -1.1217  XXZ=             -2.1527  XZZ=              0.0032  YZZ=              4.6630
  YYZ=             -2.6134  XYZ=              2.2258
 Hexadecapole moment (field-independent basis, Debye-Ang**3):
 XXXX=           -702.6952 YYYY=           -289.6861 ZZZZ=           -167.2365 XXXY=            -13.8411
 XXXZ=             -6.1537 YYYX=            -11.3328 YYYZ=             -5.0676 ZZZX=             -0.5011
 ZZZY=            -18.1325 XXYY=           -161.0225 XXZZ=           -150.5556 YYZZ=            -66.8017
 XXYZ=             -1.4340 YYXZ=             -0.6596 ZZXY=             -6.8889
 N-N= 3.299311241958D+02 E-N=-1.983840191882D+03  KE= 5.582431244100D+02
 1\1\GINC-TARSUS4\SP\RPBE1PBE\def2TZVP\C3H10O2Si1\RENATO\08-Aug-2018\0\
 \#SP PBE1PBE/Def2TZVP geom=connectivity\\Structure: 50\\0,1\H,0,0.,0.,
 0.\C,0,1.093,0.,0.\C,0,1.655,1.421,0.\H,0,1.41,-0.56,-0.885\H,0,1.424,
 -0.557,0.88\H,0,1.308,1.969,-0.883\Si,0,3.513,1.515,0.035\H,0,1.282,1.
 975,0.868\O,0,4.061,0.739,-1.312\O,0,3.968,0.824,1.454\H,0,4.029,2.906
 ,-0.04\H,0,3.76,-0.159,-1.459\C,0,5.301,0.766,1.905\H,0,5.308,0.322,2.
 902\H,0,5.747,1.766,1.967\H,0,5.921,0.153,1.244\\Version=EM64L-G09RevC
 .01\State=1-A\HF=-560.0599389\RMSD=7.104e-09\Dipole=-0.0486844,-0.3472
 795,0.167097\Quadrupole=0.9302885,0.5388077,-1.4690962,-0.7528965,2.77
 51499,1.7748001\PG=C01 [X(C3H10O2Si1)]\\@


 REALITY IS FOR PEOPLE WHO CAN'T FACE SCIENCE FICTION.
 Job cpu time:  0 days  0 hours 12 minutes 23.2 seconds.
 File lengths (MBytes):  RWF=     40 Int=      0 D2E=      0 Chk=      3 Scr=      1
 Normal termination of Gaussian 09 at Wed Aug  8 16:55:30 2018.
