 Entering Gaussian System, Link 0=g09
 Initial command:
 /usr/local/gaussian09/g09/l1.exe /scratch/renato/Gau-8984.inp -scrdir=/scratch/renato/
 Entering Link 1 = /usr/local/gaussian09/g09/l1.exe PID=      8986.
  
 Copyright (c) 1988,1990,1992,1993,1995,1998,2003,2009,2011,
            Gaussian, Inc.  All Rights Reserved.
  
 This is part of the Gaussian(R) 09 program.  It is based on
 the Gaussian(R) 03 system (copyright 2003, Gaussian, Inc.),
 the Gaussian(R) 98 system (copyright 1998, Gaussian, Inc.),
 the Gaussian(R) 94 system (copyright 1995, Gaussian, Inc.),
 the Gaussian 92(TM) system (copyright 1992, Gaussian, Inc.),
 the Gaussian 90(TM) system (copyright 1990, Gaussian, Inc.),
 the Gaussian 88(TM) system (copyright 1988, Gaussian, Inc.),
 the Gaussian 86(TM) system (copyright 1986, Carnegie Mellon
 University), and the Gaussian 82(TM) system (copyright 1983,
 Carnegie Mellon University). Gaussian is a federally registered
 trademark of Gaussian, Inc.
  
 This software contains proprietary and confidential information,
 including trade secrets, belonging to Gaussian, Inc.
  
 This software is provided under written license and may be
 used, copied, transmitted, or stored only in accord with that
 written license.
  
 The following legend is applicable only to US Government
 contracts under FAR:
  
                    RESTRICTED RIGHTS LEGEND
  
 Use, reproduction and disclosure by the US Government is
 subject to restrictions as set forth in subparagraphs (a)
 and (c) of the Commercial Computer Software - Restricted
 Rights clause in FAR 52.227-19.
  
 Gaussian, Inc.
 340 Quinnipiac St., Bldg. 40, Wallingford CT 06492
  
  
 ---------------------------------------------------------------
 Warning -- This program may not be used in any manner that
 competes with the business of Gaussian, Inc. or will provide
 assistance to any competitor of Gaussian, Inc.  The licensee
 of this program is prohibited from giving any competitor of
 Gaussian, Inc. access to this program.  By using this program,
 the user acknowledges that Gaussian, Inc. is engaged in the
 business of creating and licensing software in the field of
 computational chemistry and represents and warrants to the
 licensee that it is not a competitor of Gaussian, Inc. and that
 it will not use this program in any manner prohibited above.
 ---------------------------------------------------------------
  

 Cite this work as:
 Gaussian 09, Revision C.01,
 M. J. Frisch, G. W. Trucks, H. B. Schlegel, G. E. Scuseria, 
 M. A. Robb, J. R. Cheeseman, G. Scalmani, V. Barone, B. Mennucci, 
 G. A. Petersson, H. Nakatsuji, M. Caricato, X. Li, H. P. Hratchian, 
 A. F. Izmaylov, J. Bloino, G. Zheng, J. L. Sonnenberg, M. Hada, 
 M. Ehara, K. Toyota, R. Fukuda, J. Hasegawa, M. Ishida, T. Nakajima, 
 Y. Honda, O. Kitao, H. Nakai, T. Vreven, J. A. Montgomery, Jr., 
 J. E. Peralta, F. Ogliaro, M. Bearpark, J. J. Heyd, E. Brothers, 
 K. N. Kudin, V. N. Staroverov, T. Keith, R. Kobayashi, J. Normand, 
 K. Raghavachari, A. Rendell, J. C. Burant, S. S. Iyengar, J. Tomasi, 
 M. Cossi, N. Rega, J. M. Millam, M. Klene, J. E. Knox, J. B. Cross, 
 V. Bakken, C. Adamo, J. Jaramillo, R. Gomperts, R. E. Stratmann, 
 O. Yazyev, A. J. Austin, R. Cammi, C. Pomelli, J. W. Ochterski, 
 R. L. Martin, K. Morokuma, V. G. Zakrzewski, G. A. Voth, 
 P. Salvador, J. J. Dannenberg, S. Dapprich, A. D. Daniels, 
 O. Farkas, J. B. Foresman, J. V. Ortiz, J. Cioslowski, 
 and D. J. Fox, Gaussian, Inc., Wallingford CT, 2010.
 
 ******************************************
 Gaussian 09:  EM64L-G09RevC.01 23-Sep-2011
                 8-Aug-2018 
 ******************************************
 %nproc=2
 Will use up to    2 processors via shared memory.
 %mem=256MB
 %RWF=a13.rwf
 %chk=a1358
 %NoSave
 --------------------------------------
 #SP PBE1PBE/Def2TZVP geom=connectivity
 --------------------------------------
 1/38=1,57=2/1;
 2/12=2,17=6,18=5,40=1/2;
 3/5=44,7=101,11=2,16=1,25=1,30=1,74=-13/1,2,3;
 4//1;
 5/5=2,38=5/2;
 6/7=2,8=2,9=2,10=2,28=1/1;
 99/5=1,9=1/99;
 -------------
 Structure: 58
 -------------
 Charge =  0 Multiplicity = 1
 Symbolic Z-Matrix:
 H                     0.        0.        0. 
 C                     1.093     0.        0. 
 C                     1.655     1.421     0. 
 H                     1.41     -0.56     -0.885 
 H                     1.424    -0.557     0.88 
 H                     1.308     1.969    -0.883 
 Si                    3.513     1.515     0.035 
 H                     1.282     1.975     0.868 
 O                     4.133     0.755    -1.29 
 O                     3.968     0.824     1.454 
 H                     4.029     2.906    -0.04 
 H                     3.859    -0.149    -1.45 
 C                     5.301     0.766     1.905 
 H                     5.308     0.322     2.902 
 H                     5.747     1.766     1.967 
 H                     5.921     0.153     1.244 
 
                          Input orientation:                          
 ---------------------------------------------------------------------
 Center     Atomic      Atomic             Coordinates (Angstroms)
 Number     Number       Type             X           Y           Z
 ---------------------------------------------------------------------
      1          1           0        0.000000    0.000000    0.000000
      2          6           0        1.093000    0.000000    0.000000
      3          6           0        1.655000    1.421000    0.000000
      4          1           0        1.410000   -0.560000   -0.885000
      5          1           0        1.424000   -0.557000    0.880000
      6          1           0        1.308000    1.969000   -0.883000
      7         14           0        3.513000    1.515000    0.035000
      8          1           0        1.282000    1.975000    0.868000
      9          8           0        4.133000    0.755000   -1.290000
     10          8           0        3.968000    0.824000    1.454000
     11          1           0        4.029000    2.906000   -0.040000
     12          1           0        3.859000   -0.149000   -1.450000
     13          6           0        5.301000    0.766000    1.905000
     14          1           0        5.308000    0.322000    2.902000
     15          1           0        5.747000    1.766000    1.967000
     16          1           0        5.921000    0.153000    1.244000
 ---------------------------------------------------------------------
                    Distance matrix (angstroms):
                    1          2          3          4          5
     1  H    0.000000
     2  C    1.093000   0.000000
     3  C    2.181345   1.528098   0.000000
     4  H    1.756395   1.094218   2.183486   0.000000
     5  H    1.764207   1.092799   2.177210   1.765058   0.000000
     6  H    2.523393   2.168611   1.095629   2.531057   3.082580
     7  Si   3.825914   2.855320   1.860706   3.094291   3.061230
     8  H    2.509497   2.165588   1.095203   3.084740   2.536007
     9  O    4.394976   3.387584   2.871958   3.050898   3.710650
    10  O    4.305591   3.325465   2.796515   3.732257   2.951029
    11  H    4.967824   4.131166   2.800482   4.425646   4.429988
    12  H    4.125116   3.126573   3.070019   2.546713   3.394789
    13  C    5.684750   4.682205   4.165497   4.968124   4.222805
    14  H    6.058065   5.127525   4.793101   5.505788   4.466160
    15  H    6.325809   5.352342   4.553304   5.688036   5.026552
    16  H    6.052205   4.988039   4.621051   5.038862   4.567232
                    6          7          8          9         10
     6  H    0.000000
     7  Si   2.431227   0.000000
     8  H    1.751203   2.425459   0.000000
     9  O    3.101624   1.648522   3.778037   0.000000
    10  O    3.721316   1.642579   2.980401   2.749822   0.000000
    11  H    2.998743   1.485517   3.039282   2.490003   2.563295
    12  H    3.363780   2.256953   4.065148   0.958067   3.064609
    13  C    5.016393   2.693482   4.323125   3.401819   1.408423
    14  H    5.747942   3.586776   4.803982   4.375040   2.035757
    15  H    5.279056   2.964183   4.603011   3.772952   2.077348
    16  H    5.394604   3.019137   4.998138   3.159194   2.075705
                   11         12         13         14         15
    11  H    0.000000
    12  H    3.368980   0.000000
    13  C    3.159210   3.764653   0.000000
    14  H    4.119255   4.611003   1.091418   0.000000
    15  H    2.877355   4.348294   1.096704   1.775410   0.000000
    16  H    3.578733   3.405978   1.094116   1.775752   1.776168
                   16
    16  H    0.000000
 Stoichiometry    C3H10O2Si
 Framework group  C1[X(C3H10O2Si)]
 Deg. of freedom    42
 Full point group                 C1      NOp   1
 Largest Abelian subgroup         C1      NOp   1
 Largest concise Abelian subgroup C1      NOp   1
                         Standard orientation:                         
 ---------------------------------------------------------------------
 Center     Atomic      Atomic             Coordinates (Angstroms)
 Number     Number       Type             X           Y           Z
 ---------------------------------------------------------------------
      1          1           0       -3.198737   -1.244445   -0.479696
      2          6           0       -2.211172   -0.804653   -0.640779
      3          6           0       -1.599635   -0.302363    0.666436
      4          1           0       -2.339327    0.005800   -1.364697
      5          1           0       -1.581193   -1.566972   -1.105757
      6          1           0       -2.245994    0.454453    1.124529
      7         14           0        0.100777    0.432200    0.489679
      8          1           0       -1.529694   -1.121306    1.390252
      9          8           0        0.046003    1.719332   -0.538871
     10          8           0        1.060602   -0.788463   -0.045845
     11          1           0        0.636893    0.977246    1.763361
     12          1           0       -0.335129    1.576537   -1.406189
     13          6           0        2.451214   -0.666843   -0.233092
     14          1           0        2.846101   -1.642240   -0.522674
     15          1           0        2.953382   -0.348511    0.688457
     16          1           0        2.687544    0.054836   -1.020758
 ---------------------------------------------------------------------
 Rotational constants (GHZ):      4.0705712      1.8994992      1.5855609
 Standard basis: def2TZVP (5D, 7F)
 There are   252 symmetry adapted basis functions of A   symmetry.
 Integral buffers will be    131072 words long.
 Raffenetti 2 integral format.
 Two-electron integral symmetry is turned on.
   252 basis functions,   404 primitive gaussians,   282 cartesian basis functions
    29 alpha electrons       29 beta electrons
       nuclear repulsion energy       329.7544593044 Hartrees.
 NAtoms=   16 NActive=   16 NUniq=   16 SFac= 1.00D+00 NAtFMM=   60 NAOKFM=F Big=F
 One-electron integrals computed using PRISM.
   1 Symmetry operations used in ECPInt.
 ECPInt:  NShTT=    5886 NPrTT=   17754 LenC2=    5783 LenP2D=   13919.
 LDataN:  DoStor=T MaxTD1= 6 Len=  172
 NBasis=   252 RedAO= T  NBF=   252
 NBsUse=   252 1.00D-06 NBFU=   252
 Harris functional with IExCor= 1009 diagonalized for initial guess.
 ExpMin= 7.01D-02 ExpMax= 4.48D+04 ExpMxC= 1.53D+03 IAcc=2 IRadAn=         4 AccDes= 0.00D+00
 HarFok:  IExCor= 1009 AccDes= 0.00D+00 IRadAn=         4 IDoV= 1
 ScaDFX=  1.000000  1.000000  1.000000  1.000000
 FoFCou: FMM=F IPFlag=           0 FMFlag=      100000 FMFlg1=           0
         NFxFlg=           0 DoJE=T BraDBF=F KetDBF=T FulRan=T
         Omega=  0.000000  0.000000  1.000000  0.000000  0.000000 ICntrl=     500 IOpCl=  0
         NMat0=    1 NMatS0=    1 NMatT0=    0 NMatD0=    1 NMtDS0=    0 NMtDT0=    0
         I1Cent=           4 NGrid=           0.
 Petite list used in FoFCou.
 Initial guess orbital symmetries:
       Occupied  (A) (A) (A) (A) (A) (A) (A) (A) (A) (A) (A) (A)
                 (A) (A) (A) (A) (A) (A) (A) (A) (A) (A) (A) (A)
                 (A) (A) (A) (A) (A)
       Virtual   (A) (A) (A) (A) (A) (A) (A) (A) (A) (A) (A) (A)
                 (A) (A) (A) (A) (A) (A) (A) (A) (A) (A) (A) (A)
                 (A) (A) (A) (A) (A) (A) (A) (A) (A) (A) (A) (A)
                 (A) (A) (A) (A) (A) (A) (A) (A) (A) (A) (A) (A)
                 (A) (A) (A) (A) (A) (A) (A) (A) (A) (A) (A) (A)
                 (A) (A) (A) (A) (A) (A) (A) (A) (A) (A) (A) (A)
                 (A) (A) (A) (A) (A) (A) (A) (A) (A) (A) (A) (A)
                 (A) (A) (A) (A) (A) (A) (A) (A) (A) (A) (A) (A)
                 (A) (A) (A) (A) (A) (A) (A) (A) (A) (A) (A) (A)
                 (A) (A) (A) (A) (A) (A) (A) (A) (A) (A) (A) (A)
                 (A) (A) (A) (A) (A) (A) (A) (A) (A) (A) (A) (A)
                 (A) (A) (A) (A) (A) (A) (A) (A) (A) (A) (A) (A)
                 (A) (A) (A) (A) (A) (A) (A) (A) (A) (A) (A) (A)
                 (A) (A) (A) (A) (A) (A) (A) (A) (A) (A) (A) (A)
                 (A) (A) (A) (A) (A) (A) (A) (A) (A) (A) (A) (A)
                 (A) (A) (A) (A) (A) (A) (A) (A) (A) (A) (A) (A)
                 (A) (A) (A) (A) (A) (A) (A) (A) (A) (A) (A) (A)
                 (A) (A) (A) (A) (A) (A) (A) (A) (A) (A) (A) (A)
                 (A) (A) (A) (A) (A) (A) (A)
 The electronic state of the initial guess is 1-A.
 Requested convergence on RMS density matrix=1.00D-08 within 128 cycles.
 Requested convergence on MAX density matrix=1.00D-06.
 Requested convergence on             energy=1.00D-06.
 No special actions if energy rises.
 Integral accuracy reduced to 1.0D-05 until final iterations.
 Initial convergence to 1.0D-05 achieved.  Increase integral accuracy.
 SCF Done:  E(RPBE1PBE) =  -560.060911899     A.U. after   12 cycles
             Convg  =    0.6547D-08             -V/T =  2.0033

 **********************************************************************

            Population analysis using the SCF density.

 **********************************************************************

 Orbital symmetries:
       Occupied  (A) (A) (A) (A) (A) (A) (A) (A) (A) (A) (A) (A)
                 (A) (A) (A) (A) (A) (A) (A) (A) (A) (A) (A) (A)
                 (A) (A) (A) (A) (A)
       Virtual   (A) (A) (A) (A) (A) (A) (A) (A) (A) (A) (A) (A)
                 (A) (A) (A) (A) (A) (A) (A) (A) (A) (A) (A) (A)
                 (A) (A) (A) (A) (A) (A) (A) (A) (A) (A) (A) (A)
                 (A) (A) (A) (A) (A) (A) (A) (A) (A) (A) (A) (A)
                 (A) (A) (A) (A) (A) (A) (A) (A) (A) (A) (A) (A)
                 (A) (A) (A) (A) (A) (A) (A) (A) (A) (A) (A) (A)
                 (A) (A) (A) (A) (A) (A) (A) (A) (A) (A) (A) (A)
                 (A) (A) (A) (A) (A) (A) (A) (A) (A) (A) (A) (A)
                 (A) (A) (A) (A) (A) (A) (A) (A) (A) (A) (A) (A)
                 (A) (A) (A) (A) (A) (A) (A) (A) (A) (A) (A) (A)
                 (A) (A) (A) (A) (A) (A) (A) (A) (A) (A) (A) (A)
                 (A) (A) (A) (A) (A) (A) (A) (A) (A) (A) (A) (A)
                 (A) (A) (A) (A) (A) (A) (A) (A) (A) (A) (A) (A)
                 (A) (A) (A) (A) (A) (A) (A) (A) (A) (A) (A) (A)
                 (A) (A) (A) (A) (A) (A) (A) (A) (A) (A) (A) (A)
                 (A) (A) (A) (A) (A) (A) (A) (A) (A) (A) (A) (A)
                 (A) (A) (A) (A) (A) (A) (A) (A) (A) (A) (A) (A)
                 (A) (A) (A) (A) (A) (A) (A) (A) (A) (A) (A) (A)
                 (A) (A) (A) (A) (A) (A) (A)
 The electronic state is 1-A.
 Alpha  occ. eigenvalues --  -66.25422 -19.20193 -19.20186 -10.26571 -10.21669
 Alpha  occ. eigenvalues --  -10.20627  -5.33080  -3.66601  -3.66502  -3.66350
 Alpha  occ. eigenvalues --   -1.04511  -1.02332  -0.78077  -0.70636  -0.63956
 Alpha  occ. eigenvalues --   -0.56664  -0.51290  -0.46956  -0.46703  -0.45912
 Alpha  occ. eigenvalues --   -0.43557  -0.40996  -0.38975  -0.37246  -0.36560
 Alpha  occ. eigenvalues --   -0.35591  -0.32009  -0.30452  -0.29632
 Alpha virt. eigenvalues --    0.02352   0.05474   0.06016   0.08034   0.08986
 Alpha virt. eigenvalues --    0.10102   0.11019   0.11285   0.12209   0.13453
 Alpha virt. eigenvalues --    0.13834   0.15200   0.16297   0.16924   0.19384
 Alpha virt. eigenvalues --    0.21329   0.22136   0.23360   0.24803   0.25074
 Alpha virt. eigenvalues --    0.26653   0.28537   0.28844   0.29445   0.31359
 Alpha virt. eigenvalues --    0.32596   0.36459   0.39074   0.40042   0.40747
 Alpha virt. eigenvalues --    0.41927   0.42590   0.43970   0.45301   0.45679
 Alpha virt. eigenvalues --    0.46128   0.47421   0.47910   0.49765   0.50445
 Alpha virt. eigenvalues --    0.51375   0.53378   0.55333   0.57136   0.60378
 Alpha virt. eigenvalues --    0.60566   0.63300   0.65960   0.66193   0.67586
 Alpha virt. eigenvalues --    0.73890   0.74021   0.75315   0.78285   0.80856
 Alpha virt. eigenvalues --    0.83254   0.83619   0.86376   0.88050   0.91801
 Alpha virt. eigenvalues --    0.93159   0.95509   0.97064   0.99579   1.00544
 Alpha virt. eigenvalues --    1.04243   1.06867   1.07887   1.09266   1.11990
 Alpha virt. eigenvalues --    1.12567   1.12926   1.15905   1.19096   1.20951
 Alpha virt. eigenvalues --    1.24466   1.29171   1.32550   1.36525   1.40985
 Alpha virt. eigenvalues --    1.42252   1.46389   1.47877   1.49563   1.52365
 Alpha virt. eigenvalues --    1.52904   1.54459   1.55162   1.56569   1.58063
 Alpha virt. eigenvalues --    1.59261   1.62785   1.63551   1.64217   1.66009
 Alpha virt. eigenvalues --    1.68737   1.71621   1.75585   1.78196   1.78836
 Alpha virt. eigenvalues --    1.80822   1.83133   1.85764   1.88480   1.92009
 Alpha virt. eigenvalues --    1.95270   1.95835   1.99791   2.01283   2.04021
 Alpha virt. eigenvalues --    2.05381   2.08386   2.11395   2.12213   2.14818
 Alpha virt. eigenvalues --    2.17880   2.18996   2.26435   2.28554   2.30364
 Alpha virt. eigenvalues --    2.32366   2.33173   2.34075   2.35091   2.35720
 Alpha virt. eigenvalues --    2.36344   2.40259   2.43879   2.47542   2.49528
 Alpha virt. eigenvalues --    2.51248   2.51671   2.54691   2.56096   2.58194
 Alpha virt. eigenvalues --    2.59766   2.61249   2.65460   2.67608   2.71002
 Alpha virt. eigenvalues --    2.72889   2.77560   2.80314   2.82973   2.84953
 Alpha virt. eigenvalues --    2.85858   2.93613   2.94244   2.99763   3.01539
 Alpha virt. eigenvalues --    3.06208   3.09407   3.10634   3.11627   3.15170
 Alpha virt. eigenvalues --    3.21295   3.22560   3.23543   3.27517   3.29973
 Alpha virt. eigenvalues --    3.32019   3.32656   3.37567   3.40427   3.44514
 Alpha virt. eigenvalues --    3.44740   3.45978   3.47087   3.53551   3.53739
 Alpha virt. eigenvalues --    3.58201   3.61894   3.62529   3.65183   3.76798
 Alpha virt. eigenvalues --    3.81486   3.88250   3.92984   3.95949   4.03139
 Alpha virt. eigenvalues --    4.18922   4.24311   4.24946   4.34307   4.36777
 Alpha virt. eigenvalues --    4.41759   4.47127   4.53502   4.57228   4.78854
 Alpha virt. eigenvalues --    5.15769   5.16945   5.17773   5.18226   5.28128
 Alpha virt. eigenvalues --    5.29323   5.38516   5.41735   5.45583   5.50172
 Alpha virt. eigenvalues --    5.79822   5.86389   6.03433   6.22936   6.42152
 Alpha virt. eigenvalues --    6.43294   6.54118   6.58980   6.60315   6.65471
 Alpha virt. eigenvalues --    6.67484   6.78449   6.82089   6.96355   7.06030
 Alpha virt. eigenvalues --    7.15946   7.23429  11.93226  22.37080  22.41042
 Alpha virt. eigenvalues --   22.45495  43.62398  43.94592
          Condensed to atoms (all electrons):
              1          2          3          4          5          6
     1  H    0.550510   0.407946  -0.033164  -0.024874  -0.024554  -0.006895
     2  C    0.407946   4.943110   0.312826   0.400239   0.412621  -0.028792
     3  C   -0.033164   0.312826   5.029858  -0.045041  -0.039680   0.387364
     4  H   -0.024874   0.400239  -0.045041   0.589077  -0.028055  -0.005077
     5  H   -0.024554   0.412621  -0.039680  -0.028055   0.534607   0.007775
     6  H   -0.006895  -0.028792   0.387364  -0.005077   0.007775   0.579269
     7  Si   0.007924  -0.019340   0.429380  -0.006843  -0.008283  -0.028789
     8  H   -0.006826  -0.027998   0.368708   0.009173  -0.004092  -0.026697
     9  O    0.000059  -0.003523  -0.039325   0.005198  -0.000457  -0.001310
    10  O    0.000019  -0.005112  -0.031351   0.000562   0.007523   0.001292
    11  H   -0.000108   0.001770  -0.034430   0.000205   0.000409   0.001345
    12  H   -0.000098   0.000661  -0.002171   0.002491   0.000013   0.000085
    13  C    0.000011  -0.000104   0.002186   0.000096  -0.000071  -0.000131
    14  H   -0.000004   0.000219  -0.000440  -0.000002  -0.000161   0.000000
    15  H    0.000001  -0.000043  -0.000027   0.000000   0.000082   0.000003
    16  H    0.000001  -0.000108   0.000810  -0.000020   0.000010   0.000015
              7          8          9         10         11         12
     1  H    0.007924  -0.006826   0.000059   0.000019  -0.000108  -0.000098
     2  C   -0.019340  -0.027998  -0.003523  -0.005112   0.001770   0.000661
     3  C    0.429380   0.368708  -0.039325  -0.031351  -0.034430  -0.002171
     4  H   -0.006843   0.009173   0.005198   0.000562   0.000205   0.002491
     5  H   -0.008283  -0.004092  -0.000457   0.007523   0.000409   0.000013
     6  H   -0.028789  -0.026697  -0.001310   0.001292   0.001345   0.000085
     7  Si  11.889845  -0.016171   0.462796   0.447998   0.391642  -0.028017
     8  H   -0.016171   0.583569   0.002306   0.002049   0.000921  -0.000040
     9  O    0.462796   0.002306   7.850277  -0.033729  -0.014724   0.301441
    10  O    0.447998   0.002049  -0.033729   7.842329  -0.026156  -0.001124
    11  H    0.391642   0.000921  -0.014724  -0.026156   0.725775   0.003793
    12  H   -0.028017  -0.000040   0.301441  -0.001124   0.003793   0.402467
    13  C   -0.049081   0.000080  -0.005947   0.260878   0.002264   0.000587
    14  H    0.007690   0.000002   0.000064  -0.041231  -0.000220   0.000018
    15  H   -0.018041  -0.000018  -0.000468  -0.042422   0.009971  -0.000032
    16  H   -0.004422  -0.000020   0.006012  -0.043798  -0.001981   0.000315
             13         14         15         16
     1  H    0.000011  -0.000004   0.000001   0.000001
     2  C   -0.000104   0.000219  -0.000043  -0.000108
     3  C    0.002186  -0.000440  -0.000027   0.000810
     4  H    0.000096  -0.000002   0.000000  -0.000020
     5  H   -0.000071  -0.000161   0.000082   0.000010
     6  H   -0.000131   0.000000   0.000003   0.000015
     7  Si  -0.049081   0.007690  -0.018041  -0.004422
     8  H    0.000080   0.000002  -0.000018  -0.000020
     9  O   -0.005947   0.000064  -0.000468   0.006012
    10  O    0.260878  -0.041231  -0.042422  -0.043798
    11  H    0.002264  -0.000220   0.009971  -0.001981
    12  H    0.000587   0.000018  -0.000032   0.000315
    13  C    4.769804   0.402734   0.418043   0.412493
    14  H    0.402734   0.565488  -0.030078  -0.033363
    15  H    0.418043  -0.030078   0.593077  -0.048074
    16  H    0.412493  -0.033363  -0.048074   0.591012
 Mulliken atomic charges:
              1
     1  H    0.130054
     2  C   -0.394373
     3  C   -0.305505
     4  H    0.102873
     5  H    0.142313
     6  H    0.120545
     7  Si   0.541712
     8  H    0.115055
     9  O   -0.528669
    10  O   -0.337728
    11  H   -0.060476
    12  H    0.319611
    13  C   -0.213841
    14  H    0.129283
    15  H    0.118027
    16  H    0.121118
 Sum of Mulliken atomic charges =   0.00000
 Mulliken charges with hydrogens summed into heavy atoms:
              1
     2  C   -0.019133
     3  C   -0.069905
     7  Si   0.481237
     9  O   -0.209057
    10  O   -0.337728
    13  C    0.154587
 Sum of Mulliken charges with hydrogens summed into heavy atoms =   0.00000
 Electronic spatial extent (au):  <R**2>=            865.6860
 Charge=              0.0000 electrons
 Dipole moment (field-independent basis, Debye):
    X=             -0.1273    Y=             -0.5947    Z=             -0.8320  Tot=              1.0306
 Quadrupole moment (field-independent basis, Debye-Ang):
   XX=            -41.0101   YY=            -49.4105   ZZ=            -42.9082
   XY=             -1.4335   XZ=              0.0037   YZ=             -1.5468
 Traceless Quadrupole moment (field-independent basis, Debye-Ang):
   XX=              3.4328   YY=             -4.9675   ZZ=              1.5347
   XY=             -1.4335   XZ=              0.0037   YZ=             -1.5468
 Octapole moment (field-independent basis, Debye-Ang**2):
  XXX=             14.8432  YYY=             -6.6197  ZZZ=            -10.4227  XYY=             -0.4745
  XXY=             -1.5410  XXZ=             -1.7478  XZZ=              0.2643  YZZ=              4.8325
  YYZ=             -3.0057  XYZ=              2.0860
 Hexadecapole moment (field-independent basis, Debye-Ang**3):
 XXXX=           -703.6805 YYYY=           -290.7081 ZZZZ=           -167.0338 XXXY=            -13.1218
 XXXZ=             -6.3502 YYYX=            -11.7220 YYYZ=             -6.0001 ZZZX=             -1.4957
 ZZZY=            -18.8252 XXYY=           -161.5873 XXZZ=           -150.8111 YYZZ=            -66.2839
 XXYZ=             -1.1724 YYXZ=             -0.9578 ZZXY=             -6.0615
 N-N= 3.297544593044D+02 E-N=-1.983490281898D+03  KE= 5.582421629703D+02
 1\1\GINC-TARSUS4\SP\RPBE1PBE\def2TZVP\C3H10O2Si1\RENATO\08-Aug-2018\0\
 \#SP PBE1PBE/Def2TZVP geom=connectivity\\Structure: 58\\0,1\H,0,0.,0.,
 0.\C,0,1.093,0.,0.\C,0,1.655,1.421,0.\H,0,1.41,-0.56,-0.885\H,0,1.424,
 -0.557,0.88\H,0,1.308,1.969,-0.883\Si,0,3.513,1.515,0.035\H,0,1.282,1.
 975,0.868\O,0,4.133,0.755,-1.29\O,0,3.968,0.824,1.454\H,0,4.029,2.906,
 -0.04\H,0,3.859,-0.149,-1.45\C,0,5.301,0.766,1.905\H,0,5.308,0.322,2.9
 02\H,0,5.747,1.766,1.967\H,0,5.921,0.153,1.244\\Version=EM64L-G09RevC.
 01\State=1-A\HF=-560.0609119\RMSD=6.547e-09\Dipole=-0.0911575,-0.36934
 6,0.1402899\Quadrupole=0.8711559,0.498872,-1.3700279,-0.9206983,2.7398
 556,1.8410021\PG=C01 [X(C3H10O2Si1)]\\@


 LORD, MAN... WERE YE BUT WHYLES WHERE I AM, 
 THE GENTILES YE WAD NE'ER ENVY 'EM.         
 IT'S TRUE, THEY NEEDNA STARVE OR SWEAT,     
 THRO' WINTER'S CAULD OR SIMMER'S HEAT...    
 THEY'VE NAE SAIR WARK TO CRAZE THEIR BANES, 
 AND FILL AULD AGE WITH GRIPS AN' GRANES...  
                                             
 BUT HUMAN BODIES ARE SIC FOOLS              
 FOR A' THEIR COLLEGES AND SCHOOLS,          
 THAT WHEN NAE REAL ILLS PERPLEX THEM,       
 THEY MAK ENOW THEMSELVES TO VEX THEM,       
 AN' AYE THE LESS THEY HAE TO STURT THEM,    
 IN LIKE PROPORTION LESS WILL HURT THEM....  
                                             
                (ROBERT BURNS 'THE TWA DOGS')
 Job cpu time:  0 days  0 hours  8 minutes 12.7 seconds.
 File lengths (MBytes):  RWF=     40 Int=      0 D2E=      0 Chk=      3 Scr=      1
 Normal termination of Gaussian 09 at Wed Aug  8 17:31:27 2018.
