 Entering Gaussian System, Link 0=g09
 Initial command:
 /usr/local/gaussian09/g09/l1.exe /scratch/renato/Gau-8791.inp -scrdir=/scratch/renato/
 Entering Link 1 = /usr/local/gaussian09/g09/l1.exe PID=      8793.
  
 Copyright (c) 1988,1990,1992,1993,1995,1998,2003,2009,2011,
            Gaussian, Inc.  All Rights Reserved.
  
 This is part of the Gaussian(R) 09 program.  It is based on
 the Gaussian(R) 03 system (copyright 2003, Gaussian, Inc.),
 the Gaussian(R) 98 system (copyright 1998, Gaussian, Inc.),
 the Gaussian(R) 94 system (copyright 1995, Gaussian, Inc.),
 the Gaussian 92(TM) system (copyright 1992, Gaussian, Inc.),
 the Gaussian 90(TM) system (copyright 1990, Gaussian, Inc.),
 the Gaussian 88(TM) system (copyright 1988, Gaussian, Inc.),
 the Gaussian 86(TM) system (copyright 1986, Carnegie Mellon
 University), and the Gaussian 82(TM) system (copyright 1983,
 Carnegie Mellon University). Gaussian is a federally registered
 trademark of Gaussian, Inc.
  
 This software contains proprietary and confidential information,
 including trade secrets, belonging to Gaussian, Inc.
  
 This software is provided under written license and may be
 used, copied, transmitted, or stored only in accord with that
 written license.
  
 The following legend is applicable only to US Government
 contracts under FAR:
  
                    RESTRICTED RIGHTS LEGEND
  
 Use, reproduction and disclosure by the US Government is
 subject to restrictions as set forth in subparagraphs (a)
 and (c) of the Commercial Computer Software - Restricted
 Rights clause in FAR 52.227-19.
  
 Gaussian, Inc.
 340 Quinnipiac St., Bldg. 40, Wallingford CT 06492
  
  
 ---------------------------------------------------------------
 Warning -- This program may not be used in any manner that
 competes with the business of Gaussian, Inc. or will provide
 assistance to any competitor of Gaussian, Inc.  The licensee
 of this program is prohibited from giving any competitor of
 Gaussian, Inc. access to this program.  By using this program,
 the user acknowledges that Gaussian, Inc. is engaged in the
 business of creating and licensing software in the field of
 computational chemistry and represents and warrants to the
 licensee that it is not a competitor of Gaussian, Inc. and that
 it will not use this program in any manner prohibited above.
 ---------------------------------------------------------------
  

 Cite this work as:
 Gaussian 09, Revision C.01,
 M. J. Frisch, G. W. Trucks, H. B. Schlegel, G. E. Scuseria, 
 M. A. Robb, J. R. Cheeseman, G. Scalmani, V. Barone, B. Mennucci, 
 G. A. Petersson, H. Nakatsuji, M. Caricato, X. Li, H. P. Hratchian, 
 A. F. Izmaylov, J. Bloino, G. Zheng, J. L. Sonnenberg, M. Hada, 
 M. Ehara, K. Toyota, R. Fukuda, J. Hasegawa, M. Ishida, T. Nakajima, 
 Y. Honda, O. Kitao, H. Nakai, T. Vreven, J. A. Montgomery, Jr., 
 J. E. Peralta, F. Ogliaro, M. Bearpark, J. J. Heyd, E. Brothers, 
 K. N. Kudin, V. N. Staroverov, T. Keith, R. Kobayashi, J. Normand, 
 K. Raghavachari, A. Rendell, J. C. Burant, S. S. Iyengar, J. Tomasi, 
 M. Cossi, N. Rega, J. M. Millam, M. Klene, J. E. Knox, J. B. Cross, 
 V. Bakken, C. Adamo, J. Jaramillo, R. Gomperts, R. E. Stratmann, 
 O. Yazyev, A. J. Austin, R. Cammi, C. Pomelli, J. W. Ochterski, 
 R. L. Martin, K. Morokuma, V. G. Zakrzewski, G. A. Voth, 
 P. Salvador, J. J. Dannenberg, S. Dapprich, A. D. Daniels, 
 O. Farkas, J. B. Foresman, J. V. Ortiz, J. Cioslowski, 
 and D. J. Fox, Gaussian, Inc., Wallingford CT, 2010.
 
 ******************************************
 Gaussian 09:  EM64L-G09RevC.01 23-Sep-2011
                 8-Aug-2018 
 ******************************************
 %nproc=2
 Will use up to    2 processors via shared memory.
 %mem=256MB
 %RWF=a13.rwf
 %chk=a1355
 %NoSave
 --------------------------------------
 #SP PBE1PBE/Def2TZVP geom=connectivity
 --------------------------------------
 1/38=1,57=2/1;
 2/12=2,17=6,18=5,40=1/2;
 3/5=44,7=101,11=2,16=1,25=1,30=1,74=-13/1,2,3;
 4//1;
 5/5=2,38=5/2;
 6/7=2,8=2,9=2,10=2,28=1/1;
 99/5=1,9=1/99;
 -------------
 Structure: 55
 -------------
 Charge =  0 Multiplicity = 1
 Symbolic Z-Matrix:
 H                     0.        0.        0. 
 C                     1.093     0.        0. 
 C                     1.655     1.421     0. 
 H                     1.41     -0.56     -0.885 
 H                     1.424    -0.557     0.88 
 H                     1.308     1.969    -0.883 
 Si                    3.513     1.515     0.035 
 H                     1.282     1.975     0.868 
 O                     4.106     0.749    -1.299 
 O                     3.968     0.824     1.454 
 H                     4.029     2.906    -0.04 
 H                     3.822    -0.153    -1.454 
 C                     5.301     0.766     1.905 
 H                     5.308     0.322     2.902 
 H                     5.747     1.766     1.967 
 H                     5.921     0.153     1.244 
 
                          Input orientation:                          
 ---------------------------------------------------------------------
 Center     Atomic      Atomic             Coordinates (Angstroms)
 Number     Number       Type             X           Y           Z
 ---------------------------------------------------------------------
      1          1           0        0.000000    0.000000    0.000000
      2          6           0        1.093000    0.000000    0.000000
      3          6           0        1.655000    1.421000    0.000000
      4          1           0        1.410000   -0.560000   -0.885000
      5          1           0        1.424000   -0.557000    0.880000
      6          1           0        1.308000    1.969000   -0.883000
      7         14           0        3.513000    1.515000    0.035000
      8          1           0        1.282000    1.975000    0.868000
      9          8           0        4.106000    0.749000   -1.299000
     10          8           0        3.968000    0.824000    1.454000
     11          1           0        4.029000    2.906000   -0.040000
     12          1           0        3.822000   -0.153000   -1.454000
     13          6           0        5.301000    0.766000    1.905000
     14          1           0        5.308000    0.322000    2.902000
     15          1           0        5.747000    1.766000    1.967000
     16          1           0        5.921000    0.153000    1.244000
 ---------------------------------------------------------------------
                    Distance matrix (angstroms):
                    1          2          3          4          5
     1  H    0.000000
     2  C    1.093000   0.000000
     3  C    2.181345   1.528098   0.000000
     4  H    1.756395   1.094218   2.183486   0.000000
     5  H    1.764207   1.092799   2.177210   1.765058   0.000000
     6  H    2.523393   2.168611   1.095629   2.531057   3.082580
     7  Si   3.825914   2.855320   1.860706   3.094291   3.061230
     8  H    2.509497   2.165588   1.095203   3.084740   2.536007
     9  O    4.371228   3.365497   2.854187   3.025441   3.694158
    10  O    4.305591   3.325465   2.796515   3.732257   2.951029
    11  H    4.967824   4.131166   2.800482   4.425646   4.429988
    12  H    4.092091   3.095960   3.047537   2.511405   3.370634
    13  C    5.684750   4.682205   4.165497   4.968124   4.222805
    14  H    6.058065   5.127525   4.793101   5.505788   4.466160
    15  H    6.325809   5.352342   4.553304   5.688036   5.026552
    16  H    6.052205   4.988039   4.621051   5.038862   4.567232
                    6          7          8          9         10
     6  H    0.000000
     7  Si   2.431227   0.000000
     8  H    1.751203   2.425459   0.000000
     9  O    3.080627   1.648624   3.764829   0.000000
    10  O    3.721316   1.642579   2.980401   2.757477   0.000000
    11  H    2.998743   1.485517   3.039282   2.498731   2.563295
    12  H    3.339030   2.257172   4.046192   0.958272   3.071206
    13  C    5.016393   2.693482   4.323125   3.419639   1.408423
    14  H    5.747942   3.586776   4.803982   4.390391   2.035757
    15  H    5.279056   2.964183   4.603011   3.793933   2.077348
    16  H    5.394604   3.019137   4.998138   3.180612   2.075705
                   11         12         13         14         15
    11  H    0.000000
    12  H    3.376348   0.000000
    13  C    3.159210   3.783501   0.000000
    14  H    4.119255   4.626938   1.091418   0.000000
    15  H    2.877355   4.369374   1.096704   1.775410   0.000000
    16  H    3.578733   3.432002   1.094116   1.775752   1.776168
                   16
    16  H    0.000000
 Stoichiometry    C3H10O2Si
 Framework group  C1[X(C3H10O2Si)]
 Deg. of freedom    42
 Full point group                 C1      NOp   1
 Largest Abelian subgroup         C1      NOp   1
 Largest concise Abelian subgroup C1      NOp   1
                         Standard orientation:                         
 ---------------------------------------------------------------------
 Center     Atomic      Atomic             Coordinates (Angstroms)
 Number     Number       Type             X           Y           Z
 ---------------------------------------------------------------------
      1          1           0       -3.188697   -1.259334   -0.474886
      2          6           0       -2.203561   -0.814613   -0.637307
      3          6           0       -1.592566   -0.309692    0.669147
      4          1           0       -2.336804   -0.004590   -1.360787
      5          1           0       -1.570513   -1.573669   -1.103456
      6          1           0       -2.241978    0.443781    1.128434
      7         14           0        0.103925    0.433328    0.490079
      8          1           0       -1.517495   -1.128494    1.392609
      9          8           0        0.012630    1.716359   -0.541162
     10          8           0        1.068977   -0.782412   -0.047246
     11          1           0        0.639238    0.980641    1.763126
     12          1           0       -0.375816    1.563794   -1.403785
     13          6           0        2.458689   -0.653858   -0.236529
     14          1           0        2.857964   -1.627203   -0.526997
     15          1           0        2.960651   -0.333319    0.684366
     16          1           0        2.690271    0.069215   -1.024328
 ---------------------------------------------------------------------
 Rotational constants (GHZ):      4.0778176      1.8988608      1.5867602
 Standard basis: def2TZVP (5D, 7F)
 There are   252 symmetry adapted basis functions of A   symmetry.
 Integral buffers will be    131072 words long.
 Raffenetti 2 integral format.
 Two-electron integral symmetry is turned on.
   252 basis functions,   404 primitive gaussians,   282 cartesian basis functions
    29 alpha electrons       29 beta electrons
       nuclear repulsion energy       329.8076797156 Hartrees.
 NAtoms=   16 NActive=   16 NUniq=   16 SFac= 1.00D+00 NAtFMM=   60 NAOKFM=F Big=F
 One-electron integrals computed using PRISM.
   1 Symmetry operations used in ECPInt.
 ECPInt:  NShTT=    5886 NPrTT=   17754 LenC2=    5783 LenP2D=   13921.
 LDataN:  DoStor=T MaxTD1= 6 Len=  172
 NBasis=   252 RedAO= T  NBF=   252
 NBsUse=   252 1.00D-06 NBFU=   252
 Harris functional with IExCor= 1009 diagonalized for initial guess.
 ExpMin= 7.01D-02 ExpMax= 4.48D+04 ExpMxC= 1.53D+03 IAcc=2 IRadAn=         4 AccDes= 0.00D+00
 HarFok:  IExCor= 1009 AccDes= 0.00D+00 IRadAn=         4 IDoV= 1
 ScaDFX=  1.000000  1.000000  1.000000  1.000000
 FoFCou: FMM=F IPFlag=           0 FMFlag=      100000 FMFlg1=           0
         NFxFlg=           0 DoJE=T BraDBF=F KetDBF=T FulRan=T
         Omega=  0.000000  0.000000  1.000000  0.000000  0.000000 ICntrl=     500 IOpCl=  0
         NMat0=    1 NMatS0=    1 NMatT0=    0 NMatD0=    1 NMtDS0=    0 NMtDT0=    0
         I1Cent=           4 NGrid=           0.
 Petite list used in FoFCou.
 Initial guess orbital symmetries:
       Occupied  (A) (A) (A) (A) (A) (A) (A) (A) (A) (A) (A) (A)
                 (A) (A) (A) (A) (A) (A) (A) (A) (A) (A) (A) (A)
                 (A) (A) (A) (A) (A)
       Virtual   (A) (A) (A) (A) (A) (A) (A) (A) (A) (A) (A) (A)
                 (A) (A) (A) (A) (A) (A) (A) (A) (A) (A) (A) (A)
                 (A) (A) (A) (A) (A) (A) (A) (A) (A) (A) (A) (A)
                 (A) (A) (A) (A) (A) (A) (A) (A) (A) (A) (A) (A)
                 (A) (A) (A) (A) (A) (A) (A) (A) (A) (A) (A) (A)
                 (A) (A) (A) (A) (A) (A) (A) (A) (A) (A) (A) (A)
                 (A) (A) (A) (A) (A) (A) (A) (A) (A) (A) (A) (A)
                 (A) (A) (A) (A) (A) (A) (A) (A) (A) (A) (A) (A)
                 (A) (A) (A) (A) (A) (A) (A) (A) (A) (A) (A) (A)
                 (A) (A) (A) (A) (A) (A) (A) (A) (A) (A) (A) (A)
                 (A) (A) (A) (A) (A) (A) (A) (A) (A) (A) (A) (A)
                 (A) (A) (A) (A) (A) (A) (A) (A) (A) (A) (A) (A)
                 (A) (A) (A) (A) (A) (A) (A) (A) (A) (A) (A) (A)
                 (A) (A) (A) (A) (A) (A) (A) (A) (A) (A) (A) (A)
                 (A) (A) (A) (A) (A) (A) (A) (A) (A) (A) (A) (A)
                 (A) (A) (A) (A) (A) (A) (A) (A) (A) (A) (A) (A)
                 (A) (A) (A) (A) (A) (A) (A) (A) (A) (A) (A) (A)
                 (A) (A) (A) (A) (A) (A) (A) (A) (A) (A) (A) (A)
                 (A) (A) (A) (A) (A) (A) (A)
 The electronic state of the initial guess is 1-A.
 Requested convergence on RMS density matrix=1.00D-08 within 128 cycles.
 Requested convergence on MAX density matrix=1.00D-06.
 Requested convergence on             energy=1.00D-06.
 No special actions if energy rises.
 Integral accuracy reduced to 1.0D-05 until final iterations.
 Initial convergence to 1.0D-05 achieved.  Increase integral accuracy.
 SCF Done:  E(RPBE1PBE) =  -560.060612923     A.U. after   12 cycles
             Convg  =    0.6586D-08             -V/T =  2.0033

 **********************************************************************

            Population analysis using the SCF density.

 **********************************************************************

 Orbital symmetries:
       Occupied  (A) (A) (A) (A) (A) (A) (A) (A) (A) (A) (A) (A)
                 (A) (A) (A) (A) (A) (A) (A) (A) (A) (A) (A) (A)
                 (A) (A) (A) (A) (A)
       Virtual   (A) (A) (A) (A) (A) (A) (A) (A) (A) (A) (A) (A)
                 (A) (A) (A) (A) (A) (A) (A) (A) (A) (A) (A) (A)
                 (A) (A) (A) (A) (A) (A) (A) (A) (A) (A) (A) (A)
                 (A) (A) (A) (A) (A) (A) (A) (A) (A) (A) (A) (A)
                 (A) (A) (A) (A) (A) (A) (A) (A) (A) (A) (A) (A)
                 (A) (A) (A) (A) (A) (A) (A) (A) (A) (A) (A) (A)
                 (A) (A) (A) (A) (A) (A) (A) (A) (A) (A) (A) (A)
                 (A) (A) (A) (A) (A) (A) (A) (A) (A) (A) (A) (A)
                 (A) (A) (A) (A) (A) (A) (A) (A) (A) (A) (A) (A)
                 (A) (A) (A) (A) (A) (A) (A) (A) (A) (A) (A) (A)
                 (A) (A) (A) (A) (A) (A) (A) (A) (A) (A) (A) (A)
                 (A) (A) (A) (A) (A) (A) (A) (A) (A) (A) (A) (A)
                 (A) (A) (A) (A) (A) (A) (A) (A) (A) (A) (A) (A)
                 (A) (A) (A) (A) (A) (A) (A) (A) (A) (A) (A) (A)
                 (A) (A) (A) (A) (A) (A) (A) (A) (A) (A) (A) (A)
                 (A) (A) (A) (A) (A) (A) (A) (A) (A) (A) (A) (A)
                 (A) (A) (A) (A) (A) (A) (A) (A) (A) (A) (A) (A)
                 (A) (A) (A) (A) (A) (A) (A) (A) (A) (A) (A) (A)
                 (A) (A) (A) (A) (A) (A) (A)
 The electronic state is 1-A.
 Alpha  occ. eigenvalues --  -66.25438 -19.20250 -19.20163 -10.26609 -10.21649
 Alpha  occ. eigenvalues --  -10.20551  -5.33095  -3.66615  -3.66519  -3.66364
 Alpha  occ. eigenvalues --   -1.04536  -1.02335  -0.78035  -0.70673  -0.63924
 Alpha  occ. eigenvalues --   -0.56648  -0.51323  -0.46991  -0.46731  -0.45891
 Alpha  occ. eigenvalues --   -0.43554  -0.41013  -0.38938  -0.37248  -0.36550
 Alpha  occ. eigenvalues --   -0.35561  -0.32051  -0.30467  -0.29592
 Alpha virt. eigenvalues --    0.02361   0.05444   0.06006   0.08039   0.08988
 Alpha virt. eigenvalues --    0.10067   0.11068   0.11253   0.12178   0.13436
 Alpha virt. eigenvalues --    0.13776   0.15190   0.16338   0.17052   0.19419
 Alpha virt. eigenvalues --    0.21338   0.22155   0.23313   0.24857   0.25109
 Alpha virt. eigenvalues --    0.26657   0.28516   0.28801   0.29451   0.31346
 Alpha virt. eigenvalues --    0.32548   0.36395   0.39004   0.40040   0.40756
 Alpha virt. eigenvalues --    0.41928   0.42607   0.43924   0.45324   0.45688
 Alpha virt. eigenvalues --    0.46113   0.47406   0.47921   0.49680   0.50424
 Alpha virt. eigenvalues --    0.51411   0.53409   0.55340   0.57208   0.60294
 Alpha virt. eigenvalues --    0.60642   0.63423   0.66036   0.66294   0.67501
 Alpha virt. eigenvalues --    0.73832   0.73889   0.75366   0.78387   0.80773
 Alpha virt. eigenvalues --    0.83299   0.83560   0.86376   0.88099   0.91769
 Alpha virt. eigenvalues --    0.93184   0.95493   0.97099   0.99595   1.00450
 Alpha virt. eigenvalues --    1.04252   1.06806   1.07772   1.09317   1.12004
 Alpha virt. eigenvalues --    1.12642   1.13068   1.16006   1.19050   1.20906
 Alpha virt. eigenvalues --    1.24370   1.29313   1.32581   1.36531   1.40912
 Alpha virt. eigenvalues --    1.42309   1.46348   1.47849   1.49554   1.52295
 Alpha virt. eigenvalues --    1.52849   1.54429   1.55165   1.56646   1.58145
 Alpha virt. eigenvalues --    1.59256   1.62813   1.63553   1.64277   1.66043
 Alpha virt. eigenvalues --    1.68900   1.71575   1.75614   1.78270   1.78705
 Alpha virt. eigenvalues --    1.80921   1.83117   1.85727   1.88319   1.92090
 Alpha virt. eigenvalues --    1.95333   1.95872   1.99707   2.01157   2.04028
 Alpha virt. eigenvalues --    2.05404   2.08452   2.11548   2.12247   2.14731
 Alpha virt. eigenvalues --    2.17946   2.19212   2.26407   2.28363   2.30411
 Alpha virt. eigenvalues --    2.32266   2.33178   2.34079   2.35033   2.35748
 Alpha virt. eigenvalues --    2.36381   2.40214   2.43868   2.47531   2.49602
 Alpha virt. eigenvalues --    2.51295   2.51652   2.54665   2.56078   2.58174
 Alpha virt. eigenvalues --    2.59827   2.61216   2.65492   2.67793   2.71022
 Alpha virt. eigenvalues --    2.72874   2.77643   2.80289   2.82914   2.84956
 Alpha virt. eigenvalues --    2.85716   2.93728   2.94231   2.99630   3.01481
 Alpha virt. eigenvalues --    3.06035   3.09508   3.10606   3.11651   3.15179
 Alpha virt. eigenvalues --    3.21396   3.22596   3.23646   3.27554   3.29995
 Alpha virt. eigenvalues --    3.32023   3.32642   3.37627   3.40462   3.44514
 Alpha virt. eigenvalues --    3.44834   3.45968   3.47046   3.53618   3.53681
 Alpha virt. eigenvalues --    3.58139   3.61773   3.62709   3.65207   3.76815
 Alpha virt. eigenvalues --    3.81537   3.88343   3.93044   3.95980   4.03154
 Alpha virt. eigenvalues --    4.18859   4.24343   4.24898   4.34333   4.36729
 Alpha virt. eigenvalues --    4.41793   4.47178   4.53526   4.57238   4.78910
 Alpha virt. eigenvalues --    5.15807   5.16989   5.17698   5.18265   5.28067
 Alpha virt. eigenvalues --    5.29253   5.38500   5.41732   5.45586   5.50194
 Alpha virt. eigenvalues --    5.79795   5.86318   6.03373   6.22887   6.42261
 Alpha virt. eigenvalues --    6.43495   6.54257   6.58971   6.60347   6.65224
 Alpha virt. eigenvalues --    6.67383   6.78310   6.82131   6.96239   7.06011
 Alpha virt. eigenvalues --    7.16017   7.23697  11.93397  22.37097  22.41065
 Alpha virt. eigenvalues --   22.45567  43.62523  43.94622
          Condensed to atoms (all electrons):
              1          2          3          4          5          6
     1  H    0.550331   0.407846  -0.033068  -0.024738  -0.024534  -0.006901
     2  C    0.407846   4.943913   0.312389   0.400064   0.412524  -0.028656
     3  C   -0.033068   0.312389   5.028778  -0.045210  -0.039687   0.387394
     4  H   -0.024738   0.400064  -0.045210   0.590277  -0.028204  -0.005115
     5  H   -0.024534   0.412524  -0.039687  -0.028204   0.534915   0.007781
     6  H   -0.006901  -0.028656   0.387394  -0.005115   0.007781   0.579582
     7  Si   0.007978  -0.019226   0.431611  -0.007239  -0.008263  -0.028793
     8  H   -0.006811  -0.027964   0.368209   0.009267  -0.004092  -0.026778
     9  O    0.000078  -0.003621  -0.039841   0.005377  -0.000477  -0.001420
    10  O    0.000020  -0.005135  -0.031318   0.000602   0.007506   0.001290
    11  H   -0.000106   0.001764  -0.034266   0.000204   0.000410   0.001339
    12  H   -0.000102   0.000764  -0.002184   0.002612   0.000007   0.000091
    13  C    0.000011  -0.000110   0.002255   0.000096  -0.000073  -0.000133
    14  H   -0.000004   0.000218  -0.000446  -0.000002  -0.000160   0.000000
    15  H    0.000001  -0.000044  -0.000024   0.000000   0.000082   0.000003
    16  H    0.000001  -0.000101   0.000805  -0.000022   0.000010   0.000015
              7          8          9         10         11         12
     1  H    0.007978  -0.006811   0.000078   0.000020  -0.000106  -0.000102
     2  C   -0.019226  -0.027964  -0.003621  -0.005135   0.001764   0.000764
     3  C    0.431611   0.368209  -0.039841  -0.031318  -0.034266  -0.002184
     4  H   -0.007239   0.009267   0.005377   0.000602   0.000204   0.002612
     5  H   -0.008263  -0.004092  -0.000477   0.007506   0.000410   0.000007
     6  H   -0.028793  -0.026778  -0.001420   0.001290   0.001339   0.000091
     7  Si  11.889559  -0.016904   0.461260   0.447303   0.391767  -0.028025
     8  H   -0.016904   0.585411   0.002447   0.002115   0.000953  -0.000042
     9  O    0.461260   0.002447   7.851155  -0.033211  -0.014274   0.301801
    10  O    0.447303   0.002115  -0.033211   7.842126  -0.026068  -0.001142
    11  H    0.391767   0.000953  -0.014274  -0.026068   0.724130   0.003685
    12  H   -0.028025  -0.000042   0.301801  -0.001142   0.003685   0.401801
    13  C   -0.048806   0.000079  -0.005624   0.260538   0.002211   0.000550
    14  H    0.007674   0.000003   0.000056  -0.041278  -0.000217   0.000018
    15  H   -0.018137  -0.000018  -0.000466  -0.042344   0.009913  -0.000034
    16  H   -0.004383  -0.000021   0.005785  -0.043751  -0.001979   0.000315
             13         14         15         16
     1  H    0.000011  -0.000004   0.000001   0.000001
     2  C   -0.000110   0.000218  -0.000044  -0.000101
     3  C    0.002255  -0.000446  -0.000024   0.000805
     4  H    0.000096  -0.000002   0.000000  -0.000022
     5  H   -0.000073  -0.000160   0.000082   0.000010
     6  H   -0.000133   0.000000   0.000003   0.000015
     7  Si  -0.048806   0.007674  -0.018137  -0.004383
     8  H    0.000079   0.000003  -0.000018  -0.000021
     9  O   -0.005624   0.000056  -0.000466   0.005785
    10  O    0.260538  -0.041278  -0.042344  -0.043751
    11  H    0.002211  -0.000217   0.009913  -0.001979
    12  H    0.000550   0.000018  -0.000034   0.000315
    13  C    4.770140   0.402821   0.418036   0.412610
    14  H    0.402821   0.565115  -0.029979  -0.033271
    15  H    0.418036  -0.029979   0.593017  -0.048187
    16  H    0.412610  -0.033271  -0.048187   0.590682
 Mulliken atomic charges:
              1
     1  H    0.129998
     2  C   -0.394624
     3  C   -0.305396
     4  H    0.102032
     5  H    0.142255
     6  H    0.120301
     7  Si   0.542624
     8  H    0.114147
     9  O   -0.529027
    10  O   -0.337253
    11  H   -0.059466
    12  H    0.319884
    13  C   -0.214602
    14  H    0.129453
    15  H    0.118181
    16  H    0.121493
 Sum of Mulliken atomic charges =   0.00000
 Mulliken charges with hydrogens summed into heavy atoms:
              1
     2  C   -0.020339
     3  C   -0.070947
     7  Si   0.483158
     9  O   -0.209143
    10  O   -0.337253
    13  C    0.154525
 Sum of Mulliken charges with hydrogens summed into heavy atoms =   0.00000
 Electronic spatial extent (au):  <R**2>=            865.2863
 Charge=              0.0000 electrons
 Dipole moment (field-independent basis, Debye):
    X=             -0.0759    Y=             -0.5988    Z=             -0.8138  Tot=              1.0132
 Quadrupole moment (field-independent basis, Debye-Ang):
   XX=            -40.9591   YY=            -49.4508   ZZ=            -42.9243
   XY=             -1.3591   XZ=              0.0633   YZ=             -1.4758
 Traceless Quadrupole moment (field-independent basis, Debye-Ang):
   XX=              3.4856   YY=             -5.0061   ZZ=              1.5204
   XY=             -1.3591   XZ=              0.0633   YZ=             -1.4758
 Octapole moment (field-independent basis, Debye-Ang**2):
  XXX=             14.9565  YYY=             -6.7038  ZZZ=            -10.3286  XYY=             -0.3310
  XXY=             -1.3810  XXZ=             -1.8965  XZZ=              0.1628  YZZ=              4.7751
  YYZ=             -2.8631  XYZ=              2.1446
 Hexadecapole moment (field-independent basis, Debye-Ang**3):
 XXXX=           -703.2414 YYYY=           -290.4545 ZZZZ=           -167.1258 XXXY=            -13.3920
 XXXZ=             -6.2885 YYYX=            -11.5888 YYYZ=             -5.6615 ZZZX=             -1.1210
 ZZZY=            -18.5720 XXYY=           -161.3739 XXZZ=           -150.7146 YYZZ=            -66.4781
 XXYZ=             -1.2640 YYXZ=             -0.8321 ZZXY=             -6.3855
 N-N= 3.298076797156D+02 E-N=-1.983594751787D+03  KE= 5.582419315052D+02
 1\1\GINC-TARSUS4\SP\RPBE1PBE\def2TZVP\C3H10O2Si1\RENATO\08-Aug-2018\0\
 \#SP PBE1PBE/Def2TZVP geom=connectivity\\Structure: 55\\0,1\H,0,0.,0.,
 0.\C,0,1.093,0.,0.\C,0,1.655,1.421,0.\H,0,1.41,-0.56,-0.885\H,0,1.424,
 -0.557,0.88\H,0,1.308,1.969,-0.883\Si,0,3.513,1.515,0.035\H,0,1.282,1.
 975,0.868\O,0,4.106,0.749,-1.299\O,0,3.968,0.824,1.454\H,0,4.029,2.906
 ,-0.04\H,0,3.822,-0.153,-1.454\C,0,5.301,0.766,1.905\H,0,5.308,0.322,2
 .902\H,0,5.747,1.766,1.967\H,0,5.921,0.153,1.244\\Version=EM64L-G09Rev
 C.01\State=1-A\HF=-560.0606129\RMSD=6.586e-09\Dipole=-0.0751877,-0.361
 1924,0.1509899\Quadrupole=0.8930146,0.5154826,-1.4084972,-0.8583186,2.
 7544682,1.8173921\PG=C01 [X(C3H10O2Si1)]\\@


 BUT 'GLORY' DOESN'T MEAN 'A NICE KNOCK DOWN ARGUMENT', ALICE OBJECTED.
 WHEN I USE A WORD, HUMPTY DUMPTY SAID, IN A RATHER SCORNFUL TONE,
 IT MEANS JUST WHAT I CHOOSE IT TO MEAN....
 NEITHER MORE NOR LESS....
 THE QUESTION IS, SAID ALICE,
 WHETHER YOU CAN MAKE WORDS MEAN SO MANY DIFFERENT THINGS...
 THE QUESTION IS, SAID HUMPTY DUMPTY,
 WHICH IS TO BE MASTER....
 THAT IS ALL.....

 ALICE THROUGH THE LOOKING GLASS
 Job cpu time:  0 days  0 hours  9 minutes 57.0 seconds.
 File lengths (MBytes):  RWF=     40 Int=      0 D2E=      0 Chk=      3 Scr=      1
 Normal termination of Gaussian 09 at Wed Aug  8 17:17:47 2018.
