 Entering Gaussian System, Link 0=g09
 Initial command:
 /usr/local/gaussian09/g09/l1.exe /scratch/renato/Gau-8620.inp -scrdir=/scratch/renato/
 Entering Link 1 = /usr/local/gaussian09/g09/l1.exe PID=      8622.
  
 Copyright (c) 1988,1990,1992,1993,1995,1998,2003,2009,2011,
            Gaussian, Inc.  All Rights Reserved.
  
 This is part of the Gaussian(R) 09 program.  It is based on
 the Gaussian(R) 03 system (copyright 2003, Gaussian, Inc.),
 the Gaussian(R) 98 system (copyright 1998, Gaussian, Inc.),
 the Gaussian(R) 94 system (copyright 1995, Gaussian, Inc.),
 the Gaussian 92(TM) system (copyright 1992, Gaussian, Inc.),
 the Gaussian 90(TM) system (copyright 1990, Gaussian, Inc.),
 the Gaussian 88(TM) system (copyright 1988, Gaussian, Inc.),
 the Gaussian 86(TM) system (copyright 1986, Carnegie Mellon
 University), and the Gaussian 82(TM) system (copyright 1983,
 Carnegie Mellon University). Gaussian is a federally registered
 trademark of Gaussian, Inc.
  
 This software contains proprietary and confidential information,
 including trade secrets, belonging to Gaussian, Inc.
  
 This software is provided under written license and may be
 used, copied, transmitted, or stored only in accord with that
 written license.
  
 The following legend is applicable only to US Government
 contracts under FAR:
  
                    RESTRICTED RIGHTS LEGEND
  
 Use, reproduction and disclosure by the US Government is
 subject to restrictions as set forth in subparagraphs (a)
 and (c) of the Commercial Computer Software - Restricted
 Rights clause in FAR 52.227-19.
  
 Gaussian, Inc.
 340 Quinnipiac St., Bldg. 40, Wallingford CT 06492
  
  
 ---------------------------------------------------------------
 Warning -- This program may not be used in any manner that
 competes with the business of Gaussian, Inc. or will provide
 assistance to any competitor of Gaussian, Inc.  The licensee
 of this program is prohibited from giving any competitor of
 Gaussian, Inc. access to this program.  By using this program,
 the user acknowledges that Gaussian, Inc. is engaged in the
 business of creating and licensing software in the field of
 computational chemistry and represents and warrants to the
 licensee that it is not a competitor of Gaussian, Inc. and that
 it will not use this program in any manner prohibited above.
 ---------------------------------------------------------------
  

 Cite this work as:
 Gaussian 09, Revision C.01,
 M. J. Frisch, G. W. Trucks, H. B. Schlegel, G. E. Scuseria, 
 M. A. Robb, J. R. Cheeseman, G. Scalmani, V. Barone, B. Mennucci, 
 G. A. Petersson, H. Nakatsuji, M. Caricato, X. Li, H. P. Hratchian, 
 A. F. Izmaylov, J. Bloino, G. Zheng, J. L. Sonnenberg, M. Hada, 
 M. Ehara, K. Toyota, R. Fukuda, J. Hasegawa, M. Ishida, T. Nakajima, 
 Y. Honda, O. Kitao, H. Nakai, T. Vreven, J. A. Montgomery, Jr., 
 J. E. Peralta, F. Ogliaro, M. Bearpark, J. J. Heyd, E. Brothers, 
 K. N. Kudin, V. N. Staroverov, T. Keith, R. Kobayashi, J. Normand, 
 K. Raghavachari, A. Rendell, J. C. Burant, S. S. Iyengar, J. Tomasi, 
 M. Cossi, N. Rega, J. M. Millam, M. Klene, J. E. Knox, J. B. Cross, 
 V. Bakken, C. Adamo, J. Jaramillo, R. Gomperts, R. E. Stratmann, 
 O. Yazyev, A. J. Austin, R. Cammi, C. Pomelli, J. W. Ochterski, 
 R. L. Martin, K. Morokuma, V. G. Zakrzewski, G. A. Voth, 
 P. Salvador, J. J. Dannenberg, S. Dapprich, A. D. Daniels, 
 O. Farkas, J. B. Foresman, J. V. Ortiz, J. Cioslowski, 
 and D. J. Fox, Gaussian, Inc., Wallingford CT, 2010.
 
 ******************************************
 Gaussian 09:  EM64L-G09RevC.01 23-Sep-2011
                 8-Aug-2018 
 ******************************************
 %nproc=2
 Will use up to    2 processors via shared memory.
 %mem=256MB
 %RWF=a13.rwf
 %chk=a1352
 %NoSave
 --------------------------------------
 #SP PBE1PBE/Def2TZVP geom=connectivity
 --------------------------------------
 1/38=1,57=2/1;
 2/12=2,17=6,18=5,40=1/2;
 3/5=44,7=101,11=2,16=1,25=1,30=1,74=-13/1,2,3;
 4//1;
 5/5=2,38=5/2;
 6/7=2,8=2,9=2,10=2,28=1/1;
 99/5=1,9=1/99;
 -------------
 Structure: 52
 -------------
 Charge =  0 Multiplicity = 1
 Symbolic Z-Matrix:
 H                     0.        0.        0. 
 C                     1.093     0.        0. 
 C                     1.655     1.421     0. 
 H                     1.41     -0.56     -0.885 
 H                     1.424    -0.557     0.88 
 H                     1.308     1.969    -0.883 
 Si                    3.513     1.515     0.035 
 H                     1.282     1.975     0.868 
 O                     4.079     0.743    -1.307 
 O                     3.968     0.824     1.454 
 H                     4.029     2.906    -0.04 
 H                     3.785    -0.157    -1.457 
 C                     5.301     0.766     1.905 
 H                     5.308     0.322     2.902 
 H                     5.747     1.766     1.967 
 H                     5.921     0.153     1.244 
 
                          Input orientation:                          
 ---------------------------------------------------------------------
 Center     Atomic      Atomic             Coordinates (Angstroms)
 Number     Number       Type             X           Y           Z
 ---------------------------------------------------------------------
      1          1           0        0.000000    0.000000    0.000000
      2          6           0        1.093000    0.000000    0.000000
      3          6           0        1.655000    1.421000    0.000000
      4          1           0        1.410000   -0.560000   -0.885000
      5          1           0        1.424000   -0.557000    0.880000
      6          1           0        1.308000    1.969000   -0.883000
      7         14           0        3.513000    1.515000    0.035000
      8          1           0        1.282000    1.975000    0.868000
      9          8           0        4.079000    0.743000   -1.307000
     10          8           0        3.968000    0.824000    1.454000
     11          1           0        4.029000    2.906000   -0.040000
     12          1           0        3.785000   -0.157000   -1.457000
     13          6           0        5.301000    0.766000    1.905000
     14          1           0        5.308000    0.322000    2.902000
     15          1           0        5.747000    1.766000    1.967000
     16          1           0        5.921000    0.153000    1.244000
 ---------------------------------------------------------------------
                    Distance matrix (angstroms):
                    1          2          3          4          5
     1  H    0.000000
     2  C    1.093000   0.000000
     3  C    2.181345   1.528098   0.000000
     4  H    1.756395   1.094218   2.183486   0.000000
     5  H    1.764207   1.092799   2.177210   1.765058   0.000000
     6  H    2.523393   2.168611   1.095629   2.531057   3.082580
     7  Si   3.825914   2.855320   1.860706   3.094291   3.061230
     8  H    2.509497   2.165588   1.095203   3.084740   2.536007
     9  O    4.347245   3.343126   2.836143   2.999909   3.677226
    10  O    4.305591   3.325465   2.796515   3.732257   2.951029
    11  H    4.967824   4.131166   2.800482   4.425646   4.429988
    12  H    4.058783   3.065022   3.024869   2.475928   3.346026
    13  C    5.684750   4.682205   4.165497   4.968124   4.222805
    14  H    6.058065   5.127525   4.793101   5.505788   4.466160
    15  H    6.325809   5.352342   4.553304   5.688036   5.026552
    16  H    6.052205   4.988039   4.621051   5.038862   4.567232
                    6          7          8          9         10
     6  H    0.000000
     7  Si   2.431227   0.000000
     8  H    1.751203   2.425459   0.000000
     9  O    3.059623   1.648425   3.751221   0.000000
    10  O    3.721316   1.642579   2.980401   2.764417   0.000000
    11  H    2.998743   1.485517   3.039282   2.507261   2.563295
    12  H    3.314345   2.257351   4.026917   0.958611   3.077299
    13  C    5.016393   2.693482   4.323125   3.436678   1.408423
    14  H    5.747942   3.586776   4.803982   4.404925   2.035757
    15  H    5.279056   2.964183   4.603011   3.814162   2.077348
    16  H    5.394604   3.019137   4.998138   3.201354   2.075705
                   11         12         13         14         15
    11  H    0.000000
    12  H    3.383695   0.000000
    13  C    3.159210   3.801740   0.000000
    14  H    4.119255   4.642182   1.091418   0.000000
    15  H    2.877355   4.389892   1.096704   1.775410   0.000000
    16  H    3.578733   3.457455   1.094116   1.775752   1.776168
                   16
    16  H    0.000000
 Stoichiometry    C3H10O2Si
 Framework group  C1[X(C3H10O2Si)]
 Deg. of freedom    42
 Full point group                 C1      NOp   1
 Largest Abelian subgroup         C1      NOp   1
 Largest concise Abelian subgroup C1      NOp   1
                         Standard orientation:                         
 ---------------------------------------------------------------------
 Center     Atomic      Atomic             Coordinates (Angstroms)
 Number     Number       Type             X           Y           Z
 ---------------------------------------------------------------------
      1          1           0       -3.178796   -1.273791   -0.469716
      2          6           0       -2.196059   -0.824331   -0.633616
      3          6           0       -1.585575   -0.316395    0.671908
      4          1           0       -2.334279   -0.015001   -1.356938
      5          1           0       -1.560046   -1.580350   -1.100664
      6          1           0       -2.237934    0.433962    1.132118
      7         14           0        0.107045    0.434791    0.490293
      8          1           0       -1.505484   -1.134784    1.395298
      9          8           0       -0.020136    1.712161   -0.543851
     10          8           0        1.077155   -0.776309   -0.048400
     11          1           0        0.641594    0.984753    1.762520
     12          1           0       -0.415803    1.549501   -1.401712
     13          6           0        2.465949   -0.641061   -0.239745
     14          1           0        2.869486   -1.612486   -0.530755
     15          1           0        2.967721   -0.318053    0.680391
     16          1           0        2.692874    0.083076   -1.027921
 ---------------------------------------------------------------------
 Rotational constants (GHZ):      4.0871605      1.8980070      1.5880942
 Standard basis: def2TZVP (5D, 7F)
 There are   252 symmetry adapted basis functions of A   symmetry.
 Integral buffers will be    131072 words long.
 Raffenetti 2 integral format.
 Two-electron integral symmetry is turned on.
   252 basis functions,   404 primitive gaussians,   282 cartesian basis functions
    29 alpha electrons       29 beta electrons
       nuclear repulsion energy       329.8782427533 Hartrees.
 NAtoms=   16 NActive=   16 NUniq=   16 SFac= 1.00D+00 NAtFMM=   60 NAOKFM=F Big=F
 One-electron integrals computed using PRISM.
   1 Symmetry operations used in ECPInt.
 ECPInt:  NShTT=    5886 NPrTT=   17754 LenC2=    5782 LenP2D=   13925.
 LDataN:  DoStor=T MaxTD1= 6 Len=  172
 NBasis=   252 RedAO= T  NBF=   252
 NBsUse=   252 1.00D-06 NBFU=   252
 Harris functional with IExCor= 1009 diagonalized for initial guess.
 ExpMin= 7.01D-02 ExpMax= 4.48D+04 ExpMxC= 1.53D+03 IAcc=2 IRadAn=         4 AccDes= 0.00D+00
 HarFok:  IExCor= 1009 AccDes= 0.00D+00 IRadAn=         4 IDoV= 1
 ScaDFX=  1.000000  1.000000  1.000000  1.000000
 FoFCou: FMM=F IPFlag=           0 FMFlag=      100000 FMFlg1=           0
         NFxFlg=           0 DoJE=T BraDBF=F KetDBF=T FulRan=T
         Omega=  0.000000  0.000000  1.000000  0.000000  0.000000 ICntrl=     500 IOpCl=  0
         NMat0=    1 NMatS0=    1 NMatT0=    0 NMatD0=    1 NMtDS0=    0 NMtDT0=    0
         I1Cent=           4 NGrid=           0.
 Petite list used in FoFCou.
 Initial guess orbital symmetries:
       Occupied  (A) (A) (A) (A) (A) (A) (A) (A) (A) (A) (A) (A)
                 (A) (A) (A) (A) (A) (A) (A) (A) (A) (A) (A) (A)
                 (A) (A) (A) (A) (A)
       Virtual   (A) (A) (A) (A) (A) (A) (A) (A) (A) (A) (A) (A)
                 (A) (A) (A) (A) (A) (A) (A) (A) (A) (A) (A) (A)
                 (A) (A) (A) (A) (A) (A) (A) (A) (A) (A) (A) (A)
                 (A) (A) (A) (A) (A) (A) (A) (A) (A) (A) (A) (A)
                 (A) (A) (A) (A) (A) (A) (A) (A) (A) (A) (A) (A)
                 (A) (A) (A) (A) (A) (A) (A) (A) (A) (A) (A) (A)
                 (A) (A) (A) (A) (A) (A) (A) (A) (A) (A) (A) (A)
                 (A) (A) (A) (A) (A) (A) (A) (A) (A) (A) (A) (A)
                 (A) (A) (A) (A) (A) (A) (A) (A) (A) (A) (A) (A)
                 (A) (A) (A) (A) (A) (A) (A) (A) (A) (A) (A) (A)
                 (A) (A) (A) (A) (A) (A) (A) (A) (A) (A) (A) (A)
                 (A) (A) (A) (A) (A) (A) (A) (A) (A) (A) (A) (A)
                 (A) (A) (A) (A) (A) (A) (A) (A) (A) (A) (A) (A)
                 (A) (A) (A) (A) (A) (A) (A) (A) (A) (A) (A) (A)
                 (A) (A) (A) (A) (A) (A) (A) (A) (A) (A) (A) (A)
                 (A) (A) (A) (A) (A) (A) (A) (A) (A) (A) (A) (A)
                 (A) (A) (A) (A) (A) (A) (A) (A) (A) (A) (A) (A)
                 (A) (A) (A) (A) (A) (A) (A) (A) (A) (A) (A) (A)
                 (A) (A) (A) (A) (A) (A) (A)
 The electronic state of the initial guess is 1-A.
 Requested convergence on RMS density matrix=1.00D-08 within 128 cycles.
 Requested convergence on MAX density matrix=1.00D-06.
 Requested convergence on             energy=1.00D-06.
 No special actions if energy rises.
 Integral accuracy reduced to 1.0D-05 until final iterations.
 Initial convergence to 1.0D-05 achieved.  Increase integral accuracy.
 SCF Done:  E(RPBE1PBE) =  -560.060234923     A.U. after   12 cycles
             Convg  =    0.6826D-08             -V/T =  2.0033

 **********************************************************************

            Population analysis using the SCF density.

 **********************************************************************

 Orbital symmetries:
       Occupied  (A) (A) (A) (A) (A) (A) (A) (A) (A) (A) (A) (A)
                 (A) (A) (A) (A) (A) (A) (A) (A) (A) (A) (A) (A)
                 (A) (A) (A) (A) (A)
       Virtual   (A) (A) (A) (A) (A) (A) (A) (A) (A) (A) (A) (A)
                 (A) (A) (A) (A) (A) (A) (A) (A) (A) (A) (A) (A)
                 (A) (A) (A) (A) (A) (A) (A) (A) (A) (A) (A) (A)
                 (A) (A) (A) (A) (A) (A) (A) (A) (A) (A) (A) (A)
                 (A) (A) (A) (A) (A) (A) (A) (A) (A) (A) (A) (A)
                 (A) (A) (A) (A) (A) (A) (A) (A) (A) (A) (A) (A)
                 (A) (A) (A) (A) (A) (A) (A) (A) (A) (A) (A) (A)
                 (A) (A) (A) (A) (A) (A) (A) (A) (A) (A) (A) (A)
                 (A) (A) (A) (A) (A) (A) (A) (A) (A) (A) (A) (A)
                 (A) (A) (A) (A) (A) (A) (A) (A) (A) (A) (A) (A)
                 (A) (A) (A) (A) (A) (A) (A) (A) (A) (A) (A) (A)
                 (A) (A) (A) (A) (A) (A) (A) (A) (A) (A) (A) (A)
                 (A) (A) (A) (A) (A) (A) (A) (A) (A) (A) (A) (A)
                 (A) (A) (A) (A) (A) (A) (A) (A) (A) (A) (A) (A)
                 (A) (A) (A) (A) (A) (A) (A) (A) (A) (A) (A) (A)
                 (A) (A) (A) (A) (A) (A) (A) (A) (A) (A) (A) (A)
                 (A) (A) (A) (A) (A) (A) (A) (A) (A) (A) (A) (A)
                 (A) (A) (A) (A) (A) (A) (A) (A) (A) (A) (A) (A)
                 (A) (A) (A) (A) (A) (A) (A)
 The electronic state is 1-A.
 Alpha  occ. eigenvalues --  -66.25451 -19.20303 -19.20140 -10.26646 -10.21629
 Alpha  occ. eigenvalues --  -10.20474  -5.33108  -3.66627  -3.66533  -3.66376
 Alpha  occ. eigenvalues --   -1.04561  -1.02337  -0.77992  -0.70708  -0.63892
 Alpha  occ. eigenvalues --   -0.56633  -0.51356  -0.47025  -0.46757  -0.45870
 Alpha  occ. eigenvalues --   -0.43549  -0.41031  -0.38901  -0.37250  -0.36541
 Alpha  occ. eigenvalues --   -0.35531  -0.32090  -0.30485  -0.29542
 Alpha virt. eigenvalues --    0.02365   0.05413   0.05994   0.08042   0.08990
 Alpha virt. eigenvalues --    0.10030   0.11110   0.11232   0.12149   0.13415
 Alpha virt. eigenvalues --    0.13726   0.15180   0.16374   0.17179   0.19457
 Alpha virt. eigenvalues --    0.21351   0.22175   0.23268   0.24902   0.25149
 Alpha virt. eigenvalues --    0.26661   0.28441   0.28804   0.29468   0.31327
 Alpha virt. eigenvalues --    0.32525   0.36327   0.38937   0.40043   0.40764
 Alpha virt. eigenvalues --    0.41932   0.42623   0.43883   0.45345   0.45694
 Alpha virt. eigenvalues --    0.46107   0.47391   0.47932   0.49589   0.50406
 Alpha virt. eigenvalues --    0.51442   0.53449   0.55351   0.57280   0.60182
 Alpha virt. eigenvalues --    0.60728   0.63553   0.66086   0.66425   0.67432
 Alpha virt. eigenvalues --    0.73722   0.73811   0.75424   0.78491   0.80672
 Alpha virt. eigenvalues --    0.83340   0.83518   0.86373   0.88169   0.91739
 Alpha virt. eigenvalues --    0.93213   0.95480   0.97136   0.99612   1.00357
 Alpha virt. eigenvalues --    1.04261   1.06741   1.07661   1.09370   1.12010
 Alpha virt. eigenvalues --    1.12710   1.13217   1.16114   1.18994   1.20860
 Alpha virt. eigenvalues --    1.24295   1.29491   1.32602   1.36551   1.40836
 Alpha virt. eigenvalues --    1.42367   1.46304   1.47810   1.49549   1.52219
 Alpha virt. eigenvalues --    1.52795   1.54394   1.55163   1.56726   1.58216
 Alpha virt. eigenvalues --    1.59276   1.62825   1.63571   1.64330   1.66080
 Alpha virt. eigenvalues --    1.69048   1.71553   1.75644   1.78300   1.78608
 Alpha virt. eigenvalues --    1.81033   1.83096   1.85731   1.88147   1.92181
 Alpha virt. eigenvalues --    1.95381   1.95929   1.99566   2.01077   2.04022
 Alpha virt. eigenvalues --    2.05442   2.08535   2.11675   2.12297   2.14644
 Alpha virt. eigenvalues --    2.17974   2.19476   2.26394   2.28153   2.30454
 Alpha virt. eigenvalues --    2.32185   2.33183   2.34089   2.34979   2.35783
 Alpha virt. eigenvalues --    2.36428   2.40174   2.43875   2.47517   2.49678
 Alpha virt. eigenvalues --    2.51314   2.51671   2.54641   2.56060   2.58162
 Alpha virt. eigenvalues --    2.59888   2.61186   2.65526   2.67980   2.71055
 Alpha virt. eigenvalues --    2.72867   2.77732   2.80281   2.82862   2.84944
 Alpha virt. eigenvalues --    2.85600   2.93816   2.94275   2.99467   3.01461
 Alpha virt. eigenvalues --    3.05872   3.09616   3.10577   3.11673   3.15190
 Alpha virt. eigenvalues --    3.21489   3.22632   3.23760   3.27607   3.30024
 Alpha virt. eigenvalues --    3.32035   3.32635   3.37674   3.40501   3.44502
 Alpha virt. eigenvalues --    3.44950   3.45969   3.47047   3.53574   3.53760
 Alpha virt. eigenvalues --    3.58081   3.61659   3.62887   3.65236   3.76840
 Alpha virt. eigenvalues --    3.81584   3.88440   3.93103   3.96018   4.03168
 Alpha virt. eigenvalues --    4.18801   4.24367   4.24861   4.34362   4.36684
 Alpha virt. eigenvalues --    4.41831   4.47231   4.53551   4.57250   4.78970
 Alpha virt. eigenvalues --    5.15846   5.17031   5.17637   5.18315   5.28020
 Alpha virt. eigenvalues --    5.29192   5.38487   5.41730   5.45584   5.50210
 Alpha virt. eigenvalues --    5.79771   5.86250   6.03318   6.22808   6.42356
 Alpha virt. eigenvalues --    6.43707   6.54405   6.58953   6.60378   6.65015
 Alpha virt. eigenvalues --    6.67319   6.78172   6.82178   6.96146   7.06002
 Alpha virt. eigenvalues --    7.16084   7.23979  11.93606  22.37119  22.41086
 Alpha virt. eigenvalues --   22.45648  43.62679  43.94656
          Condensed to atoms (all electrons):
              1          2          3          4          5          6
     1  H    0.550145   0.407751  -0.032973  -0.024604  -0.024509  -0.006904
     2  C    0.407751   4.944693   0.311935   0.399899   0.412424  -0.028524
     3  C   -0.032973   0.311935   5.027846  -0.045388  -0.039695   0.387416
     4  H   -0.024604   0.399899  -0.045388   0.591543  -0.028357  -0.005153
     5  H   -0.024509   0.412424  -0.039695  -0.028357   0.535204   0.007787
     6  H   -0.006904  -0.028524   0.387416  -0.005153   0.007787   0.579911
     7  Si   0.008029  -0.019134   0.433837  -0.007652  -0.008238  -0.028794
     8  H   -0.006797  -0.027913   0.367688   0.009363  -0.004092  -0.026851
     9  O    0.000099  -0.003729  -0.040410   0.005546  -0.000496  -0.001533
    10  O    0.000020  -0.005154  -0.031275   0.000643   0.007490   0.001288
    11  H   -0.000103   0.001760  -0.034115   0.000202   0.000410   0.001335
    12  H   -0.000105   0.000880  -0.002209   0.002738   0.000002   0.000097
    13  C    0.000011  -0.000116   0.002321   0.000095  -0.000074  -0.000134
    14  H   -0.000004   0.000216  -0.000452  -0.000002  -0.000159   0.000000
    15  H    0.000001  -0.000044  -0.000020   0.000000   0.000081   0.000002
    16  H    0.000000  -0.000095   0.000799  -0.000024   0.000009   0.000016
              7          8          9         10         11         12
     1  H    0.008029  -0.006797   0.000099   0.000020  -0.000103  -0.000105
     2  C   -0.019134  -0.027913  -0.003729  -0.005154   0.001760   0.000880
     3  C    0.433837   0.367688  -0.040410  -0.031275  -0.034115  -0.002209
     4  H   -0.007652   0.009363   0.005546   0.000643   0.000202   0.002738
     5  H   -0.008238  -0.004092  -0.000496   0.007490   0.000410   0.000002
     6  H   -0.028794  -0.026851  -0.001533   0.001288   0.001335   0.000097
     7  Si  11.889347  -0.017665   0.459837   0.446633   0.391875  -0.028046
     8  H   -0.017665   0.587276   0.002597   0.002180   0.000984  -0.000045
     9  O    0.459837   0.002597   7.851882  -0.032742  -0.013829   0.302159
    10  O    0.446633   0.002180  -0.032742   7.841950  -0.025978  -0.001160
    11  H    0.391875   0.000984  -0.013829  -0.025978   0.722505   0.003581
    12  H   -0.028046  -0.000045   0.302159  -0.001160   0.003581   0.401124
    13  C   -0.048531   0.000079  -0.005324   0.260211   0.002159   0.000514
    14  H    0.007656   0.000003   0.000049  -0.041323  -0.000215   0.000018
    15  H   -0.018233  -0.000017  -0.000463  -0.042269   0.009857  -0.000035
    16  H   -0.004343  -0.000023   0.005571  -0.043715  -0.001976   0.000315
             13         14         15         16
     1  H    0.000011  -0.000004   0.000001   0.000000
     2  C   -0.000116   0.000216  -0.000044  -0.000095
     3  C    0.002321  -0.000452  -0.000020   0.000799
     4  H    0.000095  -0.000002   0.000000  -0.000024
     5  H   -0.000074  -0.000159   0.000081   0.000009
     6  H   -0.000134   0.000000   0.000002   0.000016
     7  Si  -0.048531   0.007656  -0.018233  -0.004343
     8  H    0.000079   0.000003  -0.000017  -0.000023
     9  O   -0.005324   0.000049  -0.000463   0.005571
    10  O    0.260211  -0.041323  -0.042269  -0.043715
    11  H    0.002159  -0.000215   0.009857  -0.001976
    12  H    0.000514   0.000018  -0.000035   0.000315
    13  C    4.770463   0.402912   0.418024   0.412715
    14  H    0.402912   0.564755  -0.029883  -0.033185
    15  H    0.418024  -0.029883   0.592977  -0.048299
    16  H    0.412715  -0.033185  -0.048299   0.590402
 Mulliken atomic charges:
              1
     1  H    0.129943
     2  C   -0.394849
     3  C   -0.305303
     4  H    0.101150
     5  H    0.142212
     6  H    0.120042
     7  Si   0.543422
     8  H    0.113233
     9  O   -0.529216
    10  O   -0.336798
    11  H   -0.058452
    12  H    0.320173
    13  C   -0.215325
    14  H    0.129615
    15  H    0.118321
    16  H    0.121832
 Sum of Mulliken atomic charges =   0.00000
 Mulliken charges with hydrogens summed into heavy atoms:
              1
     2  C   -0.021543
     3  C   -0.072029
     7  Si   0.484971
     9  O   -0.209043
    10  O   -0.336798
    13  C    0.154443
 Sum of Mulliken charges with hydrogens summed into heavy atoms =   0.00000
 Electronic spatial extent (au):  <R**2>=            864.8298
 Charge=              0.0000 electrons
 Dipole moment (field-independent basis, Debye):
    X=             -0.0252    Y=             -0.6007    Z=             -0.7960  Tot=              0.9975
 Quadrupole moment (field-independent basis, Debye-Ang):
   XX=            -40.9104   YY=            -49.4860   ZZ=            -42.9409
   XY=             -1.2833   XZ=              0.1217   YZ=             -1.4019
 Traceless Quadrupole moment (field-independent basis, Debye-Ang):
   XX=              3.5354   YY=             -5.0402   ZZ=              1.5049
   XY=             -1.2833   XZ=              0.1217   YZ=             -1.4019
 Octapole moment (field-independent basis, Debye-Ang**2):
  XXX=             15.0574  YYY=             -6.7741  ZZZ=            -10.2378  XYY=             -0.1805
  XXY=             -1.2250  XXZ=             -2.0480  XZZ=              0.0662  YZZ=              4.7117
  YYZ=             -2.7145  XYZ=              2.1949
 Hexadecapole moment (field-independent basis, Debye-Ang**3):
 XXXX=           -702.8923 YYYY=           -290.0331 ZZZZ=           -167.1951 XXXY=            -13.6606
 XXXZ=             -6.2124 YYYX=            -11.4373 YYYZ=             -5.3068 ZZZX=             -0.7486
 ZZZY=            -18.3153 XXYY=           -161.1626 XXZZ=           -150.6212 YYZZ=            -66.6705
 XXYZ=             -1.3628 YYXZ=             -0.7250 ZZXY=             -6.6921
 N-N= 3.298782427533D+02 E-N=-1.983734824099D+03  KE= 5.582421762106D+02
 1\1\GINC-TARSUS4\SP\RPBE1PBE\def2TZVP\C3H10O2Si1\RENATO\08-Aug-2018\0\
 \#SP PBE1PBE/Def2TZVP geom=connectivity\\Structure: 52\\0,1\H,0,0.,0.,
 0.\C,0,1.093,0.,0.\C,0,1.655,1.421,0.\H,0,1.41,-0.56,-0.885\H,0,1.424,
 -0.557,0.88\H,0,1.308,1.969,-0.883\Si,0,3.513,1.515,0.035\H,0,1.282,1.
 975,0.868\O,0,4.079,0.743,-1.307\O,0,3.968,0.824,1.454\H,0,4.029,2.906
 ,-0.04\H,0,3.785,-0.157,-1.457\C,0,5.301,0.766,1.905\H,0,5.308,0.322,2
 .902\H,0,5.747,1.766,1.967\H,0,5.921,0.153,1.244\\Version=EM64L-G09Rev
 C.01\State=1-A\HF=-560.0602349\RMSD=6.826e-09\Dipole=-0.0591162,-0.353
 065,0.1608415\Quadrupole=0.9150188,0.5307962,-1.4458149,-0.7957274,2.7
 667836,1.7925931\PG=C01 [X(C3H10O2Si1)]\\@


 ART, GLORY, FREEDOM FAIL, BUT NATURE STILL IS FAIR.

                                           -- BYRON
 Job cpu time:  0 days  0 hours  8 minutes 12.1 seconds.
 File lengths (MBytes):  RWF=     40 Int=      0 D2E=      0 Chk=      3 Scr=      1
 Normal termination of Gaussian 09 at Wed Aug  8 17:04:11 2018.
