 Entering Gaussian System, Link 0=g09
 Initial command:
 /usr/local/gaussian09/g09/l1.exe /scratch/renato/Gau-9748.inp -scrdir=/scratch/renato/
 Entering Link 1 = /usr/local/gaussian09/g09/l1.exe PID=      9750.
  
 Copyright (c) 1988,1990,1992,1993,1995,1998,2003,2009,2011,
            Gaussian, Inc.  All Rights Reserved.
  
 This is part of the Gaussian(R) 09 program.  It is based on
 the Gaussian(R) 03 system (copyright 2003, Gaussian, Inc.),
 the Gaussian(R) 98 system (copyright 1998, Gaussian, Inc.),
 the Gaussian(R) 94 system (copyright 1995, Gaussian, Inc.),
 the Gaussian 92(TM) system (copyright 1992, Gaussian, Inc.),
 the Gaussian 90(TM) system (copyright 1990, Gaussian, Inc.),
 the Gaussian 88(TM) system (copyright 1988, Gaussian, Inc.),
 the Gaussian 86(TM) system (copyright 1986, Carnegie Mellon
 University), and the Gaussian 82(TM) system (copyright 1983,
 Carnegie Mellon University). Gaussian is a federally registered
 trademark of Gaussian, Inc.
  
 This software contains proprietary and confidential information,
 including trade secrets, belonging to Gaussian, Inc.
  
 This software is provided under written license and may be
 used, copied, transmitted, or stored only in accord with that
 written license.
  
 The following legend is applicable only to US Government
 contracts under FAR:
  
                    RESTRICTED RIGHTS LEGEND
  
 Use, reproduction and disclosure by the US Government is
 subject to restrictions as set forth in subparagraphs (a)
 and (c) of the Commercial Computer Software - Restricted
 Rights clause in FAR 52.227-19.
  
 Gaussian, Inc.
 340 Quinnipiac St., Bldg. 40, Wallingford CT 06492
  
  
 ---------------------------------------------------------------
 Warning -- This program may not be used in any manner that
 competes with the business of Gaussian, Inc. or will provide
 assistance to any competitor of Gaussian, Inc.  The licensee
 of this program is prohibited from giving any competitor of
 Gaussian, Inc. access to this program.  By using this program,
 the user acknowledges that Gaussian, Inc. is engaged in the
 business of creating and licensing software in the field of
 computational chemistry and represents and warrants to the
 licensee that it is not a competitor of Gaussian, Inc. and that
 it will not use this program in any manner prohibited above.
 ---------------------------------------------------------------
  

 Cite this work as:
 Gaussian 09, Revision C.01,
 M. J. Frisch, G. W. Trucks, H. B. Schlegel, G. E. Scuseria, 
 M. A. Robb, J. R. Cheeseman, G. Scalmani, V. Barone, B. Mennucci, 
 G. A. Petersson, H. Nakatsuji, M. Caricato, X. Li, H. P. Hratchian, 
 A. F. Izmaylov, J. Bloino, G. Zheng, J. L. Sonnenberg, M. Hada, 
 M. Ehara, K. Toyota, R. Fukuda, J. Hasegawa, M. Ishida, T. Nakajima, 
 Y. Honda, O. Kitao, H. Nakai, T. Vreven, J. A. Montgomery, Jr., 
 J. E. Peralta, F. Ogliaro, M. Bearpark, J. J. Heyd, E. Brothers, 
 K. N. Kudin, V. N. Staroverov, T. Keith, R. Kobayashi, J. Normand, 
 K. Raghavachari, A. Rendell, J. C. Burant, S. S. Iyengar, J. Tomasi, 
 M. Cossi, N. Rega, J. M. Millam, M. Klene, J. E. Knox, J. B. Cross, 
 V. Bakken, C. Adamo, J. Jaramillo, R. Gomperts, R. E. Stratmann, 
 O. Yazyev, A. J. Austin, R. Cammi, C. Pomelli, J. W. Ochterski, 
 R. L. Martin, K. Morokuma, V. G. Zakrzewski, G. A. Voth, 
 P. Salvador, J. J. Dannenberg, S. Dapprich, A. D. Daniels, 
 O. Farkas, J. B. Foresman, J. V. Ortiz, J. Cioslowski, 
 and D. J. Fox, Gaussian, Inc., Wallingford CT, 2010.
 
 ******************************************
 Gaussian 09:  EM64L-G09RevC.01 23-Sep-2011
                 8-Aug-2018 
 ******************************************
 %nproc=2
 Will use up to    2 processors via shared memory.
 %mem=256MB
 %RWF=a13.rwf
 %chk=a136
 %NoSave
 --------------------------------------
 #SP PBE1PBE/Def2TZVP geom=connectivity
 --------------------------------------
 1/38=1,57=2/1;
 2/12=2,17=6,18=5,40=1/2;
 3/5=44,7=101,11=2,16=1,25=1,30=1,74=-13/1,2,3;
 4//1;
 5/5=2,38=5/2;
 6/7=2,8=2,9=2,10=2,28=1/1;
 99/5=1,9=1/99;
 ------------
 Structure: 6
 ------------
 Charge =  0 Multiplicity = 1
 Symbolic Z-Matrix:
 H                     0.        0.        0. 
 C                     1.093     0.        0. 
 C                     1.655     1.421     0. 
 H                     1.41     -0.56     -0.885 
 H                     1.424    -0.557     0.88 
 H                     1.308     1.969    -0.883 
 Si                    3.513     1.515     0.035 
 H                     1.282     1.975     0.868 
 O                     3.649     0.682    -1.381 
 O                     3.968     0.824     1.454 
 H                     4.029     2.906    -0.04 
 H                     3.211    -0.168    -1.438 
 C                     5.301     0.766     1.905 
 H                     5.308     0.322     2.902 
 H                     5.747     1.766     1.967 
 H                     5.921     0.153     1.244 
 
                          Input orientation:                          
 ---------------------------------------------------------------------
 Center     Atomic      Atomic             Coordinates (Angstroms)
 Number     Number       Type             X           Y           Z
 ---------------------------------------------------------------------
      1          1           0        0.000000    0.000000    0.000000
      2          6           0        1.093000    0.000000    0.000000
      3          6           0        1.655000    1.421000    0.000000
      4          1           0        1.410000   -0.560000   -0.885000
      5          1           0        1.424000   -0.557000    0.880000
      6          1           0        1.308000    1.969000   -0.883000
      7         14           0        3.513000    1.515000    0.035000
      8          1           0        1.282000    1.975000    0.868000
      9          8           0        3.649000    0.682000   -1.381000
     10          8           0        3.968000    0.824000    1.454000
     11          1           0        4.029000    2.906000   -0.040000
     12          1           0        3.211000   -0.168000   -1.438000
     13          6           0        5.301000    0.766000    1.905000
     14          1           0        5.308000    0.322000    2.902000
     15          1           0        5.747000    1.766000    1.967000
     16          1           0        5.921000    0.153000    1.244000
 ---------------------------------------------------------------------
                    Distance matrix (angstroms):
                    1          2          3          4          5
     1  H    0.000000
     2  C    1.093000   0.000000
     3  C    2.181345   1.528098   0.000000
     4  H    1.756395   1.094218   2.183486   0.000000
     5  H    1.764207   1.092799   2.177210   1.765058   0.000000
     6  H    2.523393   2.168611   1.095629   2.531057   3.082580
     7  Si   3.825914   2.855320   1.860706   3.094291   3.061230
     8  H    2.509497   2.165588   1.095203   3.084740   2.536007
     9  O    3.960743   2.984195   2.535610   2.608007   3.405564
    10  O    4.305591   3.325465   2.796515   3.732257   2.951029
    11  H    4.967824   4.131166   2.800482   4.425646   4.429988
    12  H    3.522299   2.565539   2.648377   1.924337   2.952594
    13  C    5.684750   4.682205   4.165497   4.968124   4.222805
    14  H    6.058065   5.127525   4.793101   5.505788   4.466160
    15  H    6.325809   5.352342   4.553304   5.688036   5.026552
    16  H    6.052205   4.988039   4.621051   5.038862   4.567232
                    6          7          8          9         10
     6  H    0.000000
     7  Si   2.431227   0.000000
     8  H    1.751203   2.425459   0.000000
     9  O    2.717472   1.648466   3.511771   0.000000
    10  O    3.721316   1.642579   2.980401   2.856423   0.000000
    11  H    2.998743   1.485517   3.039282   2.624663   2.563295
    12  H    2.914825   2.256861   3.692035   0.957911   3.149726
    13  C    5.016393   2.693482   4.323125   3.678853   1.408423
    14  H    5.747942   3.586776   4.803982   4.607165   2.035757
    15  H    5.279056   2.964183   4.603011   4.097043   2.077348
    16  H    5.394604   3.019137   4.998138   3.511759   2.075705
                   11         12         13         14         15
    11  H    0.000000
    12  H    3.474623   0.000000
    13  C    3.159210   4.051679   0.000000
    14  H    4.119255   4.844905   1.091418   0.000000
    15  H    2.877355   4.665370   1.096704   1.775410   0.000000
    16  H    3.578733   3.826260   1.094116   1.775752   1.776168
                   16
    16  H    0.000000
 Stoichiometry    C3H10O2Si
 Framework group  C1[X(C3H10O2Si)]
 Deg. of freedom    42
 Full point group                 C1      NOp   1
 Largest Abelian subgroup         C1      NOp   1
 Largest concise Abelian subgroup C1      NOp   1
                         Standard orientation:                         
 ---------------------------------------------------------------------
 Center     Atomic      Atomic             Coordinates (Angstroms)
 Number     Number       Type             X           Y           Z
 ---------------------------------------------------------------------
      1          1           0       -3.037631   -1.460733   -0.333666
      2          6           0       -2.088063   -0.961543   -0.542899
      3          6           0       -1.483166   -0.351894    0.721029
      4          1           0       -2.290831   -0.199873   -1.301884
      5          1           0       -1.416464   -1.700450   -0.986950
      6          1           0       -2.170869    0.380033    1.158922
      7         14           0        0.155821    0.490136    0.462320
      8          1           0       -1.337844   -1.126108    1.481913
      9          8           0       -0.485924    1.554923   -0.620193
     10          8           0        1.187374   -0.685854   -0.038693
     11          1           0        0.681664    1.135391    1.692725
     12          1           0       -0.964058    1.192434   -1.366908
     13          6           0        2.560937   -0.476716   -0.269431
     14          1           0        3.017468   -1.435475   -0.521532
     15          1           0        3.060776   -0.077584    0.621420
     16          1           0        2.726450    0.218826   -1.097632
 ---------------------------------------------------------------------
 Rotational constants (GHZ):      4.3847638      1.8656334      1.6059243
 Standard basis: def2TZVP (5D, 7F)
 There are   252 symmetry adapted basis functions of A   symmetry.
 Integral buffers will be    131072 words long.
 Raffenetti 2 integral format.
 Two-electron integral symmetry is turned on.
   252 basis functions,   404 primitive gaussians,   282 cartesian basis functions
    29 alpha electrons       29 beta electrons
       nuclear repulsion energy       331.6873429167 Hartrees.
 NAtoms=   16 NActive=   16 NUniq=   16 SFac= 1.00D+00 NAtFMM=   60 NAOKFM=F Big=F
 One-electron integrals computed using PRISM.
   1 Symmetry operations used in ECPInt.
 ECPInt:  NShTT=    5886 NPrTT=   17754 LenC2=    5779 LenP2D=   13942.
 LDataN:  DoStor=T MaxTD1= 6 Len=  172
 NBasis=   252 RedAO= T  NBF=   252
 NBsUse=   252 1.00D-06 NBFU=   252
 Harris functional with IExCor= 1009 diagonalized for initial guess.
 ExpMin= 7.01D-02 ExpMax= 4.48D+04 ExpMxC= 1.53D+03 IAcc=2 IRadAn=         4 AccDes= 0.00D+00
 HarFok:  IExCor= 1009 AccDes= 0.00D+00 IRadAn=         4 IDoV= 1
 ScaDFX=  1.000000  1.000000  1.000000  1.000000
 FoFCou: FMM=F IPFlag=           0 FMFlag=      100000 FMFlg1=           0
         NFxFlg=           0 DoJE=T BraDBF=F KetDBF=T FulRan=T
         Omega=  0.000000  0.000000  1.000000  0.000000  0.000000 ICntrl=     500 IOpCl=  0
         NMat0=    1 NMatS0=    1 NMatT0=    0 NMatD0=    1 NMtDS0=    0 NMtDT0=    0
         I1Cent=           4 NGrid=           0.
 Petite list used in FoFCou.
 Initial guess orbital symmetries:
       Occupied  (A) (A) (A) (A) (A) (A) (A) (A) (A) (A) (A) (A)
                 (A) (A) (A) (A) (A) (A) (A) (A) (A) (A) (A) (A)
                 (A) (A) (A) (A) (A)
       Virtual   (A) (A) (A) (A) (A) (A) (A) (A) (A) (A) (A) (A)
                 (A) (A) (A) (A) (A) (A) (A) (A) (A) (A) (A) (A)
                 (A) (A) (A) (A) (A) (A) (A) (A) (A) (A) (A) (A)
                 (A) (A) (A) (A) (A) (A) (A) (A) (A) (A) (A) (A)
                 (A) (A) (A) (A) (A) (A) (A) (A) (A) (A) (A) (A)
                 (A) (A) (A) (A) (A) (A) (A) (A) (A) (A) (A) (A)
                 (A) (A) (A) (A) (A) (A) (A) (A) (A) (A) (A) (A)
                 (A) (A) (A) (A) (A) (A) (A) (A) (A) (A) (A) (A)
                 (A) (A) (A) (A) (A) (A) (A) (A) (A) (A) (A) (A)
                 (A) (A) (A) (A) (A) (A) (A) (A) (A) (A) (A) (A)
                 (A) (A) (A) (A) (A) (A) (A) (A) (A) (A) (A) (A)
                 (A) (A) (A) (A) (A) (A) (A) (A) (A) (A) (A) (A)
                 (A) (A) (A) (A) (A) (A) (A) (A) (A) (A) (A) (A)
                 (A) (A) (A) (A) (A) (A) (A) (A) (A) (A) (A) (A)
                 (A) (A) (A) (A) (A) (A) (A) (A) (A) (A) (A) (A)
                 (A) (A) (A) (A) (A) (A) (A) (A) (A) (A) (A) (A)
                 (A) (A) (A) (A) (A) (A) (A) (A) (A) (A) (A) (A)
                 (A) (A) (A) (A) (A) (A) (A) (A) (A) (A) (A) (A)
                 (A) (A) (A) (A) (A) (A) (A)
 The electronic state of the initial guess is 1-A.
 Requested convergence on RMS density matrix=1.00D-08 within 128 cycles.
 Requested convergence on MAX density matrix=1.00D-06.
 Requested convergence on             energy=1.00D-06.
 No special actions if energy rises.
 Integral accuracy reduced to 1.0D-05 until final iterations.
 Initial convergence to 1.0D-05 achieved.  Increase integral accuracy.
 SCF Done:  E(RPBE1PBE) =  -560.042158264     A.U. after   13 cycles
             Convg  =    0.3339D-08             -V/T =  2.0032

 **********************************************************************

            Population analysis using the SCF density.

 **********************************************************************

 Orbital symmetries:
       Occupied  (A) (A) (A) (A) (A) (A) (A) (A) (A) (A) (A) (A)
                 (A) (A) (A) (A) (A) (A) (A) (A) (A) (A) (A) (A)
                 (A) (A) (A) (A) (A)
       Virtual   (A) (A) (A) (A) (A) (A) (A) (A) (A) (A) (A) (A)
                 (A) (A) (A) (A) (A) (A) (A) (A) (A) (A) (A) (A)
                 (A) (A) (A) (A) (A) (A) (A) (A) (A) (A) (A) (A)
                 (A) (A) (A) (A) (A) (A) (A) (A) (A) (A) (A) (A)
                 (A) (A) (A) (A) (A) (A) (A) (A) (A) (A) (A) (A)
                 (A) (A) (A) (A) (A) (A) (A) (A) (A) (A) (A) (A)
                 (A) (A) (A) (A) (A) (A) (A) (A) (A) (A) (A) (A)
                 (A) (A) (A) (A) (A) (A) (A) (A) (A) (A) (A) (A)
                 (A) (A) (A) (A) (A) (A) (A) (A) (A) (A) (A) (A)
                 (A) (A) (A) (A) (A) (A) (A) (A) (A) (A) (A) (A)
                 (A) (A) (A) (A) (A) (A) (A) (A) (A) (A) (A) (A)
                 (A) (A) (A) (A) (A) (A) (A) (A) (A) (A) (A) (A)
                 (A) (A) (A) (A) (A) (A) (A) (A) (A) (A) (A) (A)
                 (A) (A) (A) (A) (A) (A) (A) (A) (A) (A) (A) (A)
                 (A) (A) (A) (A) (A) (A) (A) (A) (A) (A) (A) (A)
                 (A) (A) (A) (A) (A) (A) (A) (A) (A) (A) (A) (A)
                 (A) (A) (A) (A) (A) (A) (A) (A) (A) (A) (A) (A)
                 (A) (A) (A) (A) (A) (A) (A) (A) (A) (A) (A) (A)
                 (A) (A) (A) (A) (A) (A) (A)
 The electronic state is 1-A.
 Alpha  occ. eigenvalues --  -66.25798 -19.21116 -19.19365 -10.27182 -10.21436
 Alpha  occ. eigenvalues --  -10.19263  -5.33445  -3.66966  -3.66898  -3.66675
 Alpha  occ. eigenvalues --   -1.05054  -1.02169  -0.77379  -0.71243  -0.63539
 Alpha  occ. eigenvalues --   -0.56324  -0.51808  -0.47565  -0.47205  -0.45815
 Alpha  occ. eigenvalues --   -0.43494  -0.41457  -0.38241  -0.37072  -0.36357
 Alpha  occ. eigenvalues --   -0.34906  -0.32645  -0.30985  -0.27912
 Alpha virt. eigenvalues --    0.01856   0.04813   0.05708   0.07793   0.09049
 Alpha virt. eigenvalues --    0.09314   0.11043   0.11682   0.11927   0.12977
 Alpha virt. eigenvalues --    0.13676   0.15074   0.16783   0.18262   0.20312
 Alpha virt. eigenvalues --    0.21812   0.22473   0.22556   0.25093   0.25370
 Alpha virt. eigenvalues --    0.26681   0.26911   0.28414   0.29805   0.31555
 Alpha virt. eigenvalues --    0.34100   0.35160   0.38371   0.40307   0.41221
 Alpha virt. eigenvalues --    0.41847   0.42951   0.43906   0.45245   0.45470
 Alpha virt. eigenvalues --    0.46444   0.47179   0.47836   0.48399   0.50203
 Alpha virt. eigenvalues --    0.51577   0.54520   0.56199   0.58148   0.58283
 Alpha virt. eigenvalues --    0.61495   0.65163   0.66273   0.67432   0.69656
 Alpha virt. eigenvalues --    0.72616   0.73253   0.76287   0.77537   0.80231
 Alpha virt. eigenvalues --    0.82674   0.84715   0.86401   0.90245   0.91659
 Alpha virt. eigenvalues --    0.94072   0.95351   0.97628   0.98940   0.99818
 Alpha virt. eigenvalues --    1.03597   1.04991   1.06448   1.10432   1.11219
 Alpha virt. eigenvalues --    1.13576   1.14439   1.17234   1.18470   1.19544
 Alpha virt. eigenvalues --    1.24535   1.31554   1.35523   1.37753   1.39609
 Alpha virt. eigenvalues --    1.43458   1.45077   1.46989   1.49182   1.51126
 Alpha virt. eigenvalues --    1.52353   1.53655   1.54377   1.57287   1.58712
 Alpha virt. eigenvalues --    1.60808   1.62017   1.64672   1.65273   1.65930
 Alpha virt. eigenvalues --    1.68892   1.73097   1.74369   1.76561   1.79174
 Alpha virt. eigenvalues --    1.81072   1.83984   1.86226   1.88519   1.93285
 Alpha virt. eigenvalues --    1.94527   1.95706   1.98067   2.02361   2.03104
 Alpha virt. eigenvalues --    2.05945   2.09365   2.11291   2.12629   2.15521
 Alpha virt. eigenvalues --    2.17677   2.21372   2.25105   2.29517   2.30981
 Alpha virt. eigenvalues --    2.32393   2.33811   2.34140   2.35455   2.36370
 Alpha virt. eigenvalues --    2.38694   2.40868   2.44495   2.47526   2.49911
 Alpha virt. eigenvalues --    2.51344   2.54611   2.54828   2.55734   2.58758
 Alpha virt. eigenvalues --    2.60040   2.63192   2.66248   2.69687   2.71959
 Alpha virt. eigenvalues --    2.73426   2.79240   2.81573   2.82012   2.85072
 Alpha virt. eigenvalues --    2.85187   2.94232   2.97232   2.98062   3.02636
 Alpha virt. eigenvalues --    3.05711   3.09920   3.11505   3.13500   3.15490
 Alpha virt. eigenvalues --    3.21313   3.23163   3.24566   3.30047   3.30724
 Alpha virt. eigenvalues --    3.32459   3.33451   3.38004   3.41121   3.43640
 Alpha virt. eigenvalues --    3.44117   3.47154   3.49432   3.52507   3.57163
 Alpha virt. eigenvalues --    3.58301   3.60506   3.64377   3.66637   3.77875
 Alpha virt. eigenvalues --    3.81924   3.89943   3.94594   3.97701   4.04057
 Alpha virt. eigenvalues --    4.18128   4.23834   4.25211   4.35144   4.36079
 Alpha virt. eigenvalues --    4.42444   4.48145   4.53514   4.57683   4.80578
 Alpha virt. eigenvalues --    5.16979   5.17439   5.17964   5.19440   5.27159
 Alpha virt. eigenvalues --    5.28787   5.38443   5.41654   5.46028   5.52076
 Alpha virt. eigenvalues --    5.79384   5.85218   6.02639   6.24539   6.43296
 Alpha virt. eigenvalues --    6.46939   6.56280   6.57246   6.59207   6.62095
 Alpha virt. eigenvalues --    6.68608   6.76196   6.83286   6.96024   7.07988
 Alpha virt. eigenvalues --    7.16574   7.29717  11.96544  22.37670  22.41013
 Alpha virt. eigenvalues --   22.47623  43.67789  43.95199
          Condensed to atoms (all electrons):
              1          2          3          4          5          6
     1  H    0.547884   0.407240  -0.032707  -0.023045  -0.023616  -0.006675
     2  C    0.407240   4.952404   0.307227   0.395590   0.410997  -0.025907
     3  C   -0.032707   0.307227   5.035911  -0.047692  -0.039892   0.388531
     4  H   -0.023045   0.395590  -0.047692   0.617115  -0.030320  -0.005899
     5  H   -0.023616   0.410997  -0.039892  -0.030320   0.537249   0.007733
     6  H   -0.006675  -0.025907   0.388531  -0.005899   0.007733   0.584523
     7  Si   0.008465  -0.020254   0.464736  -0.013698  -0.007827  -0.029147
     8  H   -0.006983  -0.026001   0.353784   0.010986  -0.003773  -0.027591
     9  O    0.000563  -0.010493  -0.058668   0.005149  -0.000477  -0.004409
    10  O    0.000021  -0.005082  -0.030010   0.001174   0.007311   0.001243
    11  H   -0.000064   0.001741  -0.032713   0.000185   0.000413   0.001270
    12  H   -0.000153   0.005194  -0.004460   0.005332  -0.000196   0.000321
    13  C    0.000011  -0.000289   0.003278   0.000073  -0.000084  -0.000159
    14  H   -0.000004   0.000192  -0.000509   0.000002  -0.000141   0.000000
    15  H    0.000002  -0.000049   0.000069   0.000006   0.000079  -0.000006
    16  H   -0.000001  -0.000004   0.000634  -0.000053   0.000002   0.000021
              7          8          9         10         11         12
     1  H    0.008465  -0.006983   0.000563   0.000021  -0.000064  -0.000153
     2  C   -0.020254  -0.026001  -0.010493  -0.005082   0.001741   0.005194
     3  C    0.464736   0.353784  -0.058668  -0.030010  -0.032713  -0.004460
     4  H   -0.013698   0.010986   0.005149   0.001174   0.000185   0.005332
     5  H   -0.007827  -0.003773  -0.000477   0.007311   0.000413  -0.000196
     6  H   -0.029147  -0.027591  -0.004409   0.001243   0.001270   0.000321
     7  Si  11.901838  -0.031695   0.435150   0.439350   0.392102  -0.029425
     8  H   -0.031695   0.622928   0.006643   0.003157   0.001521  -0.000254
     9  O    0.435150   0.006643   7.870129  -0.025818  -0.008006   0.310189
    10  O    0.439350   0.003157  -0.025818   7.836614  -0.024295  -0.001595
    11  H    0.392102   0.001521  -0.008006  -0.024295   0.697067   0.002341
    12  H   -0.029425  -0.000254   0.310189  -0.001595   0.002341   0.397070
    13  C   -0.045521   0.000051  -0.002393   0.254882   0.001493   0.000058
    14  H    0.007280   0.000021  -0.000012  -0.041391  -0.000206   0.000009
    15  H   -0.019294  -0.000009  -0.000391  -0.041183   0.008952  -0.000043
    16  H   -0.003706  -0.000043   0.003066  -0.043463  -0.001851   0.000332
             13         14         15         16
     1  H    0.000011  -0.000004   0.000002  -0.000001
     2  C   -0.000289   0.000192  -0.000049  -0.000004
     3  C    0.003278  -0.000509   0.000069   0.000634
     4  H    0.000073   0.000002   0.000006  -0.000053
     5  H   -0.000084  -0.000141   0.000079   0.000002
     6  H   -0.000159   0.000000  -0.000006   0.000021
     7  Si  -0.045521   0.007280  -0.019294  -0.003706
     8  H    0.000051   0.000021  -0.000009  -0.000043
     9  O   -0.002393  -0.000012  -0.000391   0.003066
    10  O    0.254882  -0.041391  -0.041183  -0.043463
    11  H    0.001493  -0.000206   0.008952  -0.001851
    12  H    0.000058   0.000009  -0.000043   0.000332
    13  C    4.776577   0.404222   0.417845   0.413391
    14  H    0.404222   0.558940  -0.028642  -0.031986
    15  H    0.417845  -0.028642   0.591855  -0.049458
    16  H    0.413391  -0.031986  -0.049458   0.588108
 Mulliken atomic charges:
              1
     1  H    0.129062
     2  C   -0.392507
     3  C   -0.307518
     4  H    0.085095
     5  H    0.142543
     6  H    0.116150
     7  Si   0.551647
     8  H    0.097260
     9  O   -0.520222
    10  O   -0.330914
    11  H   -0.039947
    12  H    0.315281
    13  C   -0.223432
    14  H    0.132224
    15  H    0.120268
    16  H    0.125011
 Sum of Mulliken atomic charges =   0.00000
 Mulliken charges with hydrogens summed into heavy atoms:
              1
     2  C   -0.035807
     3  C   -0.094109
     7  Si   0.511699
     9  O   -0.204941
    10  O   -0.330914
    13  C    0.154071
 Sum of Mulliken charges with hydrogens summed into heavy atoms =   0.00000
 Electronic spatial extent (au):  <R**2>=            857.1401
 Charge=              0.0000 electrons
 Dipole moment (field-independent basis, Debye):
    X=              0.7829    Y=             -0.5617    Z=             -0.5178  Tot=              1.0939
 Quadrupole moment (field-independent basis, Debye-Ang):
   XX=            -40.2322   YY=            -49.6799   ZZ=            -43.4965
   XY=              0.1207   XZ=              0.7290   YZ=              0.1409
 Traceless Quadrupole moment (field-independent basis, Debye-Ang):
   XX=              4.2374   YY=             -5.2104   ZZ=              0.9730
   XY=              0.1207   XZ=              0.7290   YZ=              0.1409
 Octapole moment (field-independent basis, Debye-Ang**2):
  XXX=             15.4488  YYY=             -6.8745  ZZZ=             -8.6178  XYY=              2.9452
  XXY=              0.0791  XXZ=             -4.5566  XZZ=             -0.6653  YZZ=              2.9385
  YYZ=              0.0103  XYZ=              1.7146
 Hexadecapole moment (field-independent basis, Debye-Ang**3):
 XXXX=           -703.9130 YYYY=           -273.8911 ZZZZ=           -164.9675 XXXY=            -17.6944
 XXXZ=             -3.0437 YYYX=             -7.8522 YYYZ=              0.7318 ZZZX=              4.7249
 ZZZY=            -12.9777 XXYY=           -160.0410 XXZZ=           -149.2541 YYZZ=            -70.0490
 XXYZ=             -2.7735 YYXZ=             -1.5937 ZZXY=             -8.8192
 N-N= 3.316873429167D+02 E-N=-1.987351919122D+03  KE= 5.582807664358D+02
 1\1\GINC-TARSUS4\SP\RPBE1PBE\def2TZVP\C3H10O2Si1\RENATO\08-Aug-2018\0\
 \#SP PBE1PBE/Def2TZVP geom=connectivity\\Structure: 6\\0,1\H,0,0.,0.,0
 .\C,0,1.093,0.,0.\C,0,1.655,1.421,0.\H,0,1.41,-0.56,-0.885\H,0,1.424,-
 0.557,0.88\H,0,1.308,1.969,-0.883\Si,0,3.513,1.515,0.035\H,0,1.282,1.9
 75,0.868\O,0,3.649,0.682,-1.381\O,0,3.968,0.824,1.454\H,0,4.029,2.906,
 -0.04\H,0,3.211,-0.168,-1.438\C,0,5.301,0.766,1.905\H,0,5.308,0.322,2.
 902\H,0,5.747,1.766,1.967\H,0,5.921,0.153,1.244\\Version=EM64L-G09RevC
 .01\State=1-A\HF=-560.0421583\RMSD=3.339e-09\Dipole=0.2056738,-0.22622
 41,0.3028814\Quadrupole=1.4689162,0.5958655,-2.0647817,0.1614111,2.835
 6155,1.2590597\PG=C01 [X(C3H10O2Si1)]\\@


 I DO NOT KNOW WHAT I MAY APPEAR TO THE WORLD; BUT TO MYSELF
 I SEEM TO HAVE BEEN ONLY LIKE A BOY PLAYING ON THE SEASHORE,
 AND DIVERTING MYSELF IN NOW AND THEN FINDING A SMOOTHER PEBBLE
 OR A PRETTIER SHELL THAN ORDINARY, WHILST THE GREAT OCEAN OF
 TRUTH LAY ALL UNDISCOVERED BEFORE ME.
                                          -- NEWTON (1642-1726)
 Job cpu time:  0 days  0 hours  8 minutes 51.6 seconds.
 File lengths (MBytes):  RWF=     40 Int=      0 D2E=      0 Chk=      3 Scr=      1
 Normal termination of Gaussian 09 at Wed Aug  8 18:28:25 2018.
