 Entering Gaussian System, Link 0=g09
 Initial command:
 /usr/local/gaussian09/g09/l1.exe /scratch/renato/Gau-9574.inp -scrdir=/scratch/renato/
 Entering Link 1 = /usr/local/gaussian09/g09/l1.exe PID=      9576.
  
 Copyright (c) 1988,1990,1992,1993,1995,1998,2003,2009,2011,
            Gaussian, Inc.  All Rights Reserved.
  
 This is part of the Gaussian(R) 09 program.  It is based on
 the Gaussian(R) 03 system (copyright 2003, Gaussian, Inc.),
 the Gaussian(R) 98 system (copyright 1998, Gaussian, Inc.),
 the Gaussian(R) 94 system (copyright 1995, Gaussian, Inc.),
 the Gaussian 92(TM) system (copyright 1992, Gaussian, Inc.),
 the Gaussian 90(TM) system (copyright 1990, Gaussian, Inc.),
 the Gaussian 88(TM) system (copyright 1988, Gaussian, Inc.),
 the Gaussian 86(TM) system (copyright 1986, Carnegie Mellon
 University), and the Gaussian 82(TM) system (copyright 1983,
 Carnegie Mellon University). Gaussian is a federally registered
 trademark of Gaussian, Inc.
  
 This software contains proprietary and confidential information,
 including trade secrets, belonging to Gaussian, Inc.
  
 This software is provided under written license and may be
 used, copied, transmitted, or stored only in accord with that
 written license.
  
 The following legend is applicable only to US Government
 contracts under FAR:
  
                    RESTRICTED RIGHTS LEGEND
  
 Use, reproduction and disclosure by the US Government is
 subject to restrictions as set forth in subparagraphs (a)
 and (c) of the Commercial Computer Software - Restricted
 Rights clause in FAR 52.227-19.
  
 Gaussian, Inc.
 340 Quinnipiac St., Bldg. 40, Wallingford CT 06492
  
  
 ---------------------------------------------------------------
 Warning -- This program may not be used in any manner that
 competes with the business of Gaussian, Inc. or will provide
 assistance to any competitor of Gaussian, Inc.  The licensee
 of this program is prohibited from giving any competitor of
 Gaussian, Inc. access to this program.  By using this program,
 the user acknowledges that Gaussian, Inc. is engaged in the
 business of creating and licensing software in the field of
 computational chemistry and represents and warrants to the
 licensee that it is not a competitor of Gaussian, Inc. and that
 it will not use this program in any manner prohibited above.
 ---------------------------------------------------------------
  

 Cite this work as:
 Gaussian 09, Revision C.01,
 M. J. Frisch, G. W. Trucks, H. B. Schlegel, G. E. Scuseria, 
 M. A. Robb, J. R. Cheeseman, G. Scalmani, V. Barone, B. Mennucci, 
 G. A. Petersson, H. Nakatsuji, M. Caricato, X. Li, H. P. Hratchian, 
 A. F. Izmaylov, J. Bloino, G. Zheng, J. L. Sonnenberg, M. Hada, 
 M. Ehara, K. Toyota, R. Fukuda, J. Hasegawa, M. Ishida, T. Nakajima, 
 Y. Honda, O. Kitao, H. Nakai, T. Vreven, J. A. Montgomery, Jr., 
 J. E. Peralta, F. Ogliaro, M. Bearpark, J. J. Heyd, E. Brothers, 
 K. N. Kudin, V. N. Staroverov, T. Keith, R. Kobayashi, J. Normand, 
 K. Raghavachari, A. Rendell, J. C. Burant, S. S. Iyengar, J. Tomasi, 
 M. Cossi, N. Rega, J. M. Millam, M. Klene, J. E. Knox, J. B. Cross, 
 V. Bakken, C. Adamo, J. Jaramillo, R. Gomperts, R. E. Stratmann, 
 O. Yazyev, A. J. Austin, R. Cammi, C. Pomelli, J. W. Ochterski, 
 R. L. Martin, K. Morokuma, V. G. Zakrzewski, G. A. Voth, 
 P. Salvador, J. J. Dannenberg, S. Dapprich, A. D. Daniels, 
 O. Farkas, J. B. Foresman, J. V. Ortiz, J. Cioslowski, 
 and D. J. Fox, Gaussian, Inc., Wallingford CT, 2010.
 
 ******************************************
 Gaussian 09:  EM64L-G09RevC.01 23-Sep-2011
                 8-Aug-2018 
 ******************************************
 %nproc=2
 Will use up to    2 processors via shared memory.
 %mem=256MB
 %RWF=a13.rwf
 %chk=a1367
 %NoSave
 --------------------------------------
 #SP PBE1PBE/Def2TZVP geom=connectivity
 --------------------------------------
 1/38=1,57=2/1;
 2/12=2,17=6,18=5,40=1/2;
 3/5=44,7=101,11=2,16=1,25=1,30=1,74=-13/1,2,3;
 4//1;
 5/5=2,38=5/2;
 6/7=2,8=2,9=2,10=2,28=1/1;
 99/5=1,9=1/99;
 -------------
 Structure: 67
 -------------
 Charge =  0 Multiplicity = 1
 Symbolic Z-Matrix:
 H                     0.        0.        0. 
 C                     1.093     0.        0. 
 C                     1.655     1.421     0. 
 H                     1.41     -0.56     -0.885 
 H                     1.424    -0.557     0.88 
 H                     1.308     1.969    -0.883 
 Si                    3.513     1.515     0.035 
 H                     1.282     1.975     0.868 
 O                     4.212     0.775    -1.262 
 O                     3.968     0.824     1.454 
 H                     4.029     2.906    -0.04 
 H                     3.97     -0.136    -1.435 
 C                     5.301     0.766     1.905 
 H                     5.308     0.322     2.902 
 H                     5.747     1.766     1.967 
 H                     5.921     0.153     1.244 
 
                          Input orientation:                          
 ---------------------------------------------------------------------
 Center     Atomic      Atomic             Coordinates (Angstroms)
 Number     Number       Type             X           Y           Z
 ---------------------------------------------------------------------
      1          1           0        0.000000    0.000000    0.000000
      2          6           0        1.093000    0.000000    0.000000
      3          6           0        1.655000    1.421000    0.000000
      4          1           0        1.410000   -0.560000   -0.885000
      5          1           0        1.424000   -0.557000    0.880000
      6          1           0        1.308000    1.969000   -0.883000
      7         14           0        3.513000    1.515000    0.035000
      8          1           0        1.282000    1.975000    0.868000
      9          8           0        4.212000    0.775000   -1.262000
     10          8           0        3.968000    0.824000    1.454000
     11          1           0        4.029000    2.906000   -0.040000
     12          1           0        3.970000   -0.136000   -1.435000
     13          6           0        5.301000    0.766000    1.905000
     14          1           0        5.308000    0.322000    2.902000
     15          1           0        5.747000    1.766000    1.967000
     16          1           0        5.921000    0.153000    1.244000
 ---------------------------------------------------------------------
                    Distance matrix (angstroms):
                    1          2          3          4          5
     1  H    0.000000
     2  C    1.093000   0.000000
     3  C    2.181345   1.528098   0.000000
     4  H    1.756395   1.094218   2.183486   0.000000
     5  H    1.764207   1.092799   2.177210   1.765058   0.000000
     6  H    2.523393   2.168611   1.095629   2.531057   3.082580
     7  Si   3.825914   2.855320   1.860706   3.094291   3.061230
     8  H    2.509497   2.165588   1.095203   3.084740   2.536007
     9  O    4.464775   3.452742   2.923732   3.126589   3.759698
    10  O    4.305591   3.325465   2.796515   3.732257   2.951029
    11  H    4.967824   4.131166   2.800482   4.425646   4.429988
    12  H    4.223579   3.217895   3.137308   2.652523   3.466783
    13  C    5.684750   4.682205   4.165497   4.968124   4.222805
    14  H    6.058065   5.127525   4.793101   5.505788   4.466160
    15  H    6.325809   5.352342   4.553304   5.688036   5.026552
    16  H    6.052205   4.988039   4.621051   5.038862   4.567232
                    6          7          8          9         10
     6  H    0.000000
     7  Si   2.431227   0.000000
     8  H    1.751203   2.425459   0.000000
     9  O    3.162672   1.648760   3.815993   0.000000
    10  O    3.721316   1.642579   2.980401   2.727378   0.000000
    11  H    2.998743   1.485517   3.039282   2.463318   2.563295
    12  H    3.438310   2.257332   4.121344   0.958339   3.044327
    13  C    5.016393   2.693482   4.323125   3.349013   1.408423
    14  H    5.747942   3.586776   4.803982   4.329587   2.035757
    15  H    5.279056   2.964183   4.603011   3.710087   2.077348
    16  H    5.394604   3.019137   4.998138   3.096385   2.075705
                   11         12         13         14         15
    11  H    0.000000
    12  H    3.347129   0.000000
    13  C    3.159210   3.706854   0.000000
    14  H    4.119255   4.561752   1.091418   0.000000
    15  H    2.877355   4.283566   1.096704   1.775410   0.000000
    16  H    3.578733   3.326705   1.094116   1.775752   1.776168
                   16
    16  H    0.000000
 Stoichiometry    C3H10O2Si
 Framework group  C1[X(C3H10O2Si)]
 Deg. of freedom    42
 Full point group                 C1      NOp   1
 Largest Abelian subgroup         C1      NOp   1
 Largest concise Abelian subgroup C1      NOp   1
                         Standard orientation:                         
 ---------------------------------------------------------------------
 Center     Atomic      Atomic             Coordinates (Angstroms)
 Number     Number       Type             X           Y           Z
 ---------------------------------------------------------------------
      1          1           0       -3.228355   -1.199984   -0.491790
      2          6           0       -2.233657   -0.775423   -0.649819
      3          6           0       -1.620401   -0.278374    0.658594
      4          1           0       -2.346573    0.034673   -1.376667
      5          1           0       -1.613085   -1.548425   -1.109784
      6          1           0       -2.257403    0.489348    1.111619
      7         14           0        0.091517    0.430267    0.487162
      8          1           0       -1.565819   -1.096094    1.385109
      9          8           0        0.145158    1.724383   -0.533033
     10          8           0        1.035375   -0.806145   -0.040554
     11          1           0        0.630144    0.971090    1.761585
     12          1           0       -0.210966    1.607438   -1.415027
     13          6           0        2.428446   -0.705797   -0.222041
     14          1           0        2.810016   -1.687827   -0.507022
     15          1           0        2.931285   -0.392213    0.700769
     16          1           0        2.678926    0.009919   -1.010773
 ---------------------------------------------------------------------
 Rotational constants (GHZ):      4.0548768      1.9002847      1.5816464
 Standard basis: def2TZVP (5D, 7F)
 There are   252 symmetry adapted basis functions of A   symmetry.
 Integral buffers will be    131072 words long.
 Raffenetti 2 integral format.
 Two-electron integral symmetry is turned on.
   252 basis functions,   404 primitive gaussians,   282 cartesian basis functions
    29 alpha electrons       29 beta electrons
       nuclear repulsion energy       329.6016243017 Hartrees.
 NAtoms=   16 NActive=   16 NUniq=   16 SFac= 1.00D+00 NAtFMM=   60 NAOKFM=F Big=F
 One-electron integrals computed using PRISM.
   1 Symmetry operations used in ECPInt.
 ECPInt:  NShTT=    5886 NPrTT=   17754 LenC2=    5780 LenP2D=   13912.
 LDataN:  DoStor=T MaxTD1= 6 Len=  172
 NBasis=   252 RedAO= T  NBF=   252
 NBsUse=   252 1.00D-06 NBFU=   252
 Harris functional with IExCor= 1009 diagonalized for initial guess.
 ExpMin= 7.01D-02 ExpMax= 4.48D+04 ExpMxC= 1.53D+03 IAcc=2 IRadAn=         4 AccDes= 0.00D+00
 HarFok:  IExCor= 1009 AccDes= 0.00D+00 IRadAn=         4 IDoV= 1
 ScaDFX=  1.000000  1.000000  1.000000  1.000000
 FoFCou: FMM=F IPFlag=           0 FMFlag=      100000 FMFlg1=           0
         NFxFlg=           0 DoJE=T BraDBF=F KetDBF=T FulRan=T
         Omega=  0.000000  0.000000  1.000000  0.000000  0.000000 ICntrl=     500 IOpCl=  0
         NMat0=    1 NMatS0=    1 NMatT0=    0 NMatD0=    1 NMtDS0=    0 NMtDT0=    0
         I1Cent=           4 NGrid=           0.
 Petite list used in FoFCou.
 Initial guess orbital symmetries:
       Occupied  (A) (A) (A) (A) (A) (A) (A) (A) (A) (A) (A) (A)
                 (A) (A) (A) (A) (A) (A) (A) (A) (A) (A) (A) (A)
                 (A) (A) (A) (A) (A)
       Virtual   (A) (A) (A) (A) (A) (A) (A) (A) (A) (A) (A) (A)
                 (A) (A) (A) (A) (A) (A) (A) (A) (A) (A) (A) (A)
                 (A) (A) (A) (A) (A) (A) (A) (A) (A) (A) (A) (A)
                 (A) (A) (A) (A) (A) (A) (A) (A) (A) (A) (A) (A)
                 (A) (A) (A) (A) (A) (A) (A) (A) (A) (A) (A) (A)
                 (A) (A) (A) (A) (A) (A) (A) (A) (A) (A) (A) (A)
                 (A) (A) (A) (A) (A) (A) (A) (A) (A) (A) (A) (A)
                 (A) (A) (A) (A) (A) (A) (A) (A) (A) (A) (A) (A)
                 (A) (A) (A) (A) (A) (A) (A) (A) (A) (A) (A) (A)
                 (A) (A) (A) (A) (A) (A) (A) (A) (A) (A) (A) (A)
                 (A) (A) (A) (A) (A) (A) (A) (A) (A) (A) (A) (A)
                 (A) (A) (A) (A) (A) (A) (A) (A) (A) (A) (A) (A)
                 (A) (A) (A) (A) (A) (A) (A) (A) (A) (A) (A) (A)
                 (A) (A) (A) (A) (A) (A) (A) (A) (A) (A) (A) (A)
                 (A) (A) (A) (A) (A) (A) (A) (A) (A) (A) (A) (A)
                 (A) (A) (A) (A) (A) (A) (A) (A) (A) (A) (A) (A)
                 (A) (A) (A) (A) (A) (A) (A) (A) (A) (A) (A) (A)
                 (A) (A) (A) (A) (A) (A) (A) (A) (A) (A) (A) (A)
                 (A) (A) (A) (A) (A) (A) (A)
 The electronic state of the initial guess is 1-A.
 Requested convergence on RMS density matrix=1.00D-08 within 128 cycles.
 Requested convergence on MAX density matrix=1.00D-06.
 Requested convergence on             energy=1.00D-06.
 No special actions if energy rises.
 Integral accuracy reduced to 1.0D-05 until final iterations.
 Initial convergence to 1.0D-05 achieved.  Increase integral accuracy.
 SCF Done:  E(RPBE1PBE) =  -560.061316409     A.U. after   12 cycles
             Convg  =    0.6943D-08             -V/T =  2.0033

 **********************************************************************

            Population analysis using the SCF density.

 **********************************************************************

 Orbital symmetries:
       Occupied  (A) (A) (A) (A) (A) (A) (A) (A) (A) (A) (A) (A)
                 (A) (A) (A) (A) (A) (A) (A) (A) (A) (A) (A) (A)
                 (A) (A) (A) (A) (A)
       Virtual   (A) (A) (A) (A) (A) (A) (A) (A) (A) (A) (A) (A)
                 (A) (A) (A) (A) (A) (A) (A) (A) (A) (A) (A) (A)
                 (A) (A) (A) (A) (A) (A) (A) (A) (A) (A) (A) (A)
                 (A) (A) (A) (A) (A) (A) (A) (A) (A) (A) (A) (A)
                 (A) (A) (A) (A) (A) (A) (A) (A) (A) (A) (A) (A)
                 (A) (A) (A) (A) (A) (A) (A) (A) (A) (A) (A) (A)
                 (A) (A) (A) (A) (A) (A) (A) (A) (A) (A) (A) (A)
                 (A) (A) (A) (A) (A) (A) (A) (A) (A) (A) (A) (A)
                 (A) (A) (A) (A) (A) (A) (A) (A) (A) (A) (A) (A)
                 (A) (A) (A) (A) (A) (A) (A) (A) (A) (A) (A) (A)
                 (A) (A) (A) (A) (A) (A) (A) (A) (A) (A) (A) (A)
                 (A) (A) (A) (A) (A) (A) (A) (A) (A) (A) (A) (A)
                 (A) (A) (A) (A) (A) (A) (A) (A) (A) (A) (A) (A)
                 (A) (A) (A) (A) (A) (A) (A) (A) (A) (A) (A) (A)
                 (A) (A) (A) (A) (A) (A) (A) (A) (A) (A) (A) (A)
                 (A) (A) (A) (A) (A) (A) (A) (A) (A) (A) (A) (A)
                 (A) (A) (A) (A) (A) (A) (A) (A) (A) (A) (A) (A)
                 (A) (A) (A) (A) (A) (A) (A) (A) (A) (A) (A) (A)
                 (A) (A) (A) (A) (A) (A) (A)
 The electronic state is 1-A.
 Alpha  occ. eigenvalues --  -66.25385 -19.20246 -19.20031 -10.26460 -10.21729
 Alpha  occ. eigenvalues --  -10.20849  -5.33045  -3.66570  -3.66462  -3.66317
 Alpha  occ. eigenvalues --   -1.04440  -1.02285  -0.78201  -0.70530  -0.64049
 Alpha  occ. eigenvalues --   -0.56688  -0.51187  -0.46854  -0.46629  -0.45977
 Alpha  occ. eigenvalues --   -0.43566  -0.40949  -0.39071  -0.37229  -0.36585
 Alpha  occ. eigenvalues --   -0.35660  -0.31893  -0.30445  -0.29688
 Alpha virt. eigenvalues --    0.02300   0.05544   0.06040   0.08017   0.08974
 Alpha virt. eigenvalues --    0.10170   0.10867   0.11403   0.12299   0.13492
 Alpha virt. eigenvalues --    0.14035   0.15235   0.16109   0.16570   0.19300
 Alpha virt. eigenvalues --    0.21313   0.22067   0.23487   0.24619   0.24990
 Alpha virt. eigenvalues --    0.26648   0.28400   0.29145   0.29465   0.31330
 Alpha virt. eigenvalues --    0.32841   0.36626   0.39288   0.40061   0.40713
 Alpha virt. eigenvalues --    0.41931   0.42531   0.44125   0.45216   0.45638
 Alpha virt. eigenvalues --    0.46211   0.47459   0.47882   0.49974   0.50519
 Alpha virt. eigenvalues --    0.51239   0.53353   0.55338   0.56907   0.60120
 Alpha virt. eigenvalues --    0.60729   0.62990   0.65576   0.66093   0.67901
 Alpha virt. eigenvalues --    0.73958   0.74437   0.75230   0.78007   0.81003
 Alpha virt. eigenvalues --    0.83097   0.83843   0.86363   0.88035   0.91889
 Alpha virt. eigenvalues --    0.93111   0.95556   0.96946   0.99526   1.00812
 Alpha virt. eigenvalues --    1.04211   1.07004   1.08173   1.09116   1.11899
 Alpha virt. eigenvalues --    1.12287   1.12627   1.15657   1.19059   1.21101
 Alpha virt. eigenvalues --    1.24856   1.28865   1.32385   1.36574   1.41145
 Alpha virt. eigenvalues --    1.42078   1.46474   1.47840   1.49648   1.52512
 Alpha virt. eigenvalues --    1.53070   1.54504   1.55120   1.56372   1.57800
 Alpha virt. eigenvalues --    1.59389   1.62637   1.63593   1.63961   1.65936
 Alpha virt. eigenvalues --    1.68207   1.71837   1.75488   1.77745   1.79308
 Alpha virt. eigenvalues --    1.80645   1.83147   1.86096   1.88882   1.91842
 Alpha virt. eigenvalues --    1.95050   1.95795   1.99783   2.01674   2.03921
 Alpha virt. eigenvalues --    2.05386   2.08288   2.10836   2.12163   2.15027
 Alpha virt. eigenvalues --    2.17454   2.18670   2.26570   2.29003   2.30192
 Alpha virt. eigenvalues --    2.32689   2.33160   2.34095   2.35265   2.35721
 Alpha virt. eigenvalues --    2.36263   2.40408   2.43995   2.47503   2.49308
 Alpha virt. eigenvalues --    2.51068   2.51791   2.54749   2.56140   2.58282
 Alpha virt. eigenvalues --    2.59608   2.61330   2.65356   2.67120   2.70999
 Alpha virt. eigenvalues --    2.72948   2.77276   2.80451   2.83172   2.84853
 Alpha virt. eigenvalues --    2.86366   2.93299   2.94444   2.99956   3.01860
 Alpha virt. eigenvalues --    3.06707   3.09162   3.10662   3.11537   3.15156
 Alpha virt. eigenvalues --    3.20963   3.22444   3.23303   3.27441   3.29964
 Alpha virt. eigenvalues --    3.32042   3.32728   3.37323   3.40339   3.44359
 Alpha virt. eigenvalues --    3.44683   3.46048   3.47308   3.53383   3.53962
 Alpha virt. eigenvalues --    3.58384   3.61927   3.62291   3.65138   3.76769
 Alpha virt. eigenvalues --    3.81310   3.87932   3.92794   3.95869   4.03080
 Alpha virt. eigenvalues --    4.19108   4.24185   4.25126   4.34234   4.36926
 Alpha virt. eigenvalues --    4.41685   4.46977   4.53434   4.57195   4.78707
 Alpha virt. eigenvalues --    5.15686   5.16821   5.17950   5.18188   5.28288
 Alpha virt. eigenvalues --    5.29561   5.38561   5.41732   5.45517   5.50078
 Alpha virt. eigenvalues --    5.79891   5.86595   6.03605   6.22855   6.41738
 Alpha virt. eigenvalues --    6.42612   6.53741   6.58890   6.60284   6.66261
 Alpha virt. eigenvalues --    6.67768   6.78749   6.81985   6.96804   7.06083
 Alpha virt. eigenvalues --    7.15696   7.22726  11.92615  22.37054  22.40963
 Alpha virt. eigenvalues --   22.45332  43.62080  43.94497
          Condensed to atoms (all electrons):
              1          2          3          4          5          6
     1  H    0.551051   0.408224  -0.033433  -0.025277  -0.024590  -0.006875
     2  C    0.408224   4.940744   0.314070   0.400826   0.412878  -0.029158
     3  C   -0.033433   0.314070   5.033556  -0.044605  -0.039654   0.387291
     4  H   -0.025277   0.400826  -0.044605   0.585711  -0.027630  -0.004964
     5  H   -0.024590   0.412878  -0.039654  -0.027630   0.533699   0.007753
     6  H   -0.006875  -0.029158   0.387291  -0.004964   0.007753   0.578327
     7  Si   0.007736  -0.019842   0.422679  -0.005731  -0.008327  -0.028781
     8  H   -0.006874  -0.028017   0.370029   0.008899  -0.004087  -0.026443
     9  O    0.000008  -0.003301  -0.037982   0.004654  -0.000397  -0.001005
    10  O    0.000015  -0.005010  -0.031443   0.000441   0.007573   0.001300
    11  H   -0.000115   0.001786  -0.034992   0.000209   0.000409   0.001358
    12  H   -0.000088   0.000405  -0.002178   0.002141   0.000027   0.000071
    13  C    0.000010  -0.000088   0.001974   0.000097  -0.000066  -0.000127
    14  H   -0.000004   0.000223  -0.000418  -0.000003  -0.000163   0.000000
    15  H    0.000001  -0.000041  -0.000033  -0.000001   0.000082   0.000005
    16  H    0.000001  -0.000127   0.000821  -0.000015   0.000011   0.000014
              7          8          9         10         11         12
     1  H    0.007736  -0.006874   0.000008   0.000015  -0.000115  -0.000088
     2  C   -0.019842  -0.028017  -0.003301  -0.005010   0.001786   0.000405
     3  C    0.422679   0.370029  -0.037982  -0.031443  -0.034992  -0.002178
     4  H   -0.005731   0.008899   0.004654   0.000441   0.000209   0.002141
     5  H   -0.008327  -0.004087  -0.000397   0.007573   0.000409   0.000027
     6  H   -0.028781  -0.026443  -0.001005   0.001300   0.001358   0.000071
     7  Si  11.891649  -0.014162   0.466965   0.449993   0.391214  -0.027970
     8  H   -0.014162   0.578348   0.001938   0.001857   0.000829  -0.000035
     9  O    0.466965   0.001938   7.848670  -0.035251  -0.016134   0.300118
    10  O    0.449993   0.001857  -0.035251   7.842907  -0.026368  -0.001078
    11  H    0.391214   0.000829  -0.016134  -0.026368   0.730663   0.004143
    12  H   -0.027970  -0.000035   0.300118  -0.001078   0.004143   0.404709
    13  C   -0.049886   0.000081  -0.006982   0.261846   0.002433   0.000696
    14  H    0.007738   0.000000   0.000090  -0.041058  -0.000228   0.000020
    15  H   -0.017741  -0.000020  -0.000473  -0.042642   0.010133  -0.000025
    16  H   -0.004520  -0.000018   0.006712  -0.043968  -0.001980   0.000316
             13         14         15         16
     1  H    0.000010  -0.000004   0.000001   0.000001
     2  C   -0.000088   0.000223  -0.000041  -0.000127
     3  C    0.001974  -0.000418  -0.000033   0.000821
     4  H    0.000097  -0.000003  -0.000001  -0.000015
     5  H   -0.000066  -0.000163   0.000082   0.000011
     6  H   -0.000127   0.000000   0.000005   0.000014
     7  Si  -0.049886   0.007738  -0.017741  -0.004520
     8  H    0.000081   0.000000  -0.000020  -0.000018
     9  O   -0.006982   0.000090  -0.000473   0.006712
    10  O    0.261846  -0.041058  -0.042642  -0.043968
    11  H    0.002433  -0.000228   0.010133  -0.001980
    12  H    0.000696   0.000020  -0.000025   0.000316
    13  C    4.768864   0.402472   0.418069   0.412080
    14  H    0.402472   0.566546  -0.030376  -0.033639
    15  H    0.418069  -0.030376   0.593165  -0.047705
    16  H    0.412080  -0.033639  -0.047705   0.592161
 Mulliken atomic charges:
              1
     1  H    0.130210
     2  C   -0.393571
     3  C   -0.305680
     4  H    0.105249
     5  H    0.142481
     6  H    0.121236
     7  Si   0.538988
     8  H    0.117676
     9  O   -0.527629
    10  O   -0.339115
    11  H   -0.063361
    12  H    0.318730
    13  C   -0.211473
    14  H    0.128802
    15  H    0.117603
    16  H    0.119855
 Sum of Mulliken atomic charges =   0.00000
 Mulliken charges with hydrogens summed into heavy atoms:
              1
     2  C   -0.015631
     3  C   -0.066768
     7  Si   0.475626
     9  O   -0.208899
    10  O   -0.339115
    13  C    0.154786
 Sum of Mulliken charges with hydrogens summed into heavy atoms =   0.00000
 Electronic spatial extent (au):  <R**2>=            866.9314
 Charge=              0.0000 electrons
 Dipole moment (field-independent basis, Debye):
    X=             -0.2725    Y=             -0.5817    Z=             -0.8887  Tot=              1.0966
 Quadrupole moment (field-independent basis, Debye-Ang):
   XX=            -41.1635   YY=            -49.2951   ZZ=            -42.8615
   XY=             -1.6361   XZ=             -0.1867   YZ=             -1.7413
 Traceless Quadrupole moment (field-independent basis, Debye-Ang):
   XX=              3.2766   YY=             -4.8551   ZZ=              1.5785
   XY=             -1.6361   XZ=             -0.1867   YZ=             -1.7413
 Octapole moment (field-independent basis, Debye-Ang**2):
  XXX=             14.4588  YYY=             -6.3783  ZZZ=            -10.7060  XYY=             -0.8321
  XXY=             -2.0368  XXZ=             -1.3300  XZZ=              0.5965  YZZ=              4.9755
  YYZ=             -3.3875  XYZ=              1.8609
 Hexadecapole moment (field-independent basis, Debye-Ang**3):
 XXXX=           -705.3449 YYYY=           -291.2387 ZZZZ=           -166.5556 XXXY=            -12.3730
 XXXZ=             -6.4695 YYYX=            -12.0029 YYYZ=             -6.8913 ZZZX=             -2.6240
 ZZZY=            -19.5502 XXYY=           -162.3061 XXZZ=           -151.0710 YYZZ=            -65.7625
 XXYZ=             -0.9550 YYXZ=             -1.4370 ZZXY=             -5.0142
 N-N= 3.296016243017D+02 E-N=-1.983189478794D+03  KE= 5.582411900803D+02
 1\1\GINC-TARSUS4\SP\RPBE1PBE\def2TZVP\C3H10O2Si1\RENATO\08-Aug-2018\0\
 \#SP PBE1PBE/Def2TZVP geom=connectivity\\Structure: 67\\0,1\H,0,0.,0.,
 0.\C,0,1.093,0.,0.\C,0,1.655,1.421,0.\H,0,1.41,-0.56,-0.885\H,0,1.424,
 -0.557,0.88\H,0,1.308,1.969,-0.883\Si,0,3.513,1.515,0.035\H,0,1.282,1.
 975,0.868\O,0,4.212,0.775,-1.262\O,0,3.968,0.824,1.454\H,0,4.029,2.906
 ,-0.04\H,0,3.97,-0.136,-1.435\C,0,5.301,0.766,1.905\H,0,5.308,0.322,2.
 902\H,0,5.747,1.766,1.967\H,0,5.921,0.153,1.244\\Version=EM64L-G09RevC
 .01\State=1-A\HF=-560.0613164\RMSD=6.943e-09\Dipole=-0.1359007,-0.3945
 166,0.1095937\Quadrupole=0.8194358,0.4456355,-1.2650713,-1.1103445,2.6
 905059,1.9075087\PG=C01 [X(C3H10O2Si1)]\\@


 One man practicing sportsmanship is far better than 50 preaching it.
 -- Knute K. Rockne
 Job cpu time:  0 days  0 hours  9 minutes 20.0 seconds.
 File lengths (MBytes):  RWF=     40 Int=      0 D2E=      0 Chk=      3 Scr=      1
 Normal termination of Gaussian 09 at Wed Aug  8 18:16:29 2018.
