 Entering Gaussian System, Link 0=g09
 Initial command:
 /usr/local/gaussian09/g09/l1.exe /scratch/renato/Gau-9517.inp -scrdir=/scratch/renato/
 Entering Link 1 = /usr/local/gaussian09/g09/l1.exe PID=      9519.
  
 Copyright (c) 1988,1990,1992,1993,1995,1998,2003,2009,2011,
            Gaussian, Inc.  All Rights Reserved.
  
 This is part of the Gaussian(R) 09 program.  It is based on
 the Gaussian(R) 03 system (copyright 2003, Gaussian, Inc.),
 the Gaussian(R) 98 system (copyright 1998, Gaussian, Inc.),
 the Gaussian(R) 94 system (copyright 1995, Gaussian, Inc.),
 the Gaussian 92(TM) system (copyright 1992, Gaussian, Inc.),
 the Gaussian 90(TM) system (copyright 1990, Gaussian, Inc.),
 the Gaussian 88(TM) system (copyright 1988, Gaussian, Inc.),
 the Gaussian 86(TM) system (copyright 1986, Carnegie Mellon
 University), and the Gaussian 82(TM) system (copyright 1983,
 Carnegie Mellon University). Gaussian is a federally registered
 trademark of Gaussian, Inc.
  
 This software contains proprietary and confidential information,
 including trade secrets, belonging to Gaussian, Inc.
  
 This software is provided under written license and may be
 used, copied, transmitted, or stored only in accord with that
 written license.
  
 The following legend is applicable only to US Government
 contracts under FAR:
  
                    RESTRICTED RIGHTS LEGEND
  
 Use, reproduction and disclosure by the US Government is
 subject to restrictions as set forth in subparagraphs (a)
 and (c) of the Commercial Computer Software - Restricted
 Rights clause in FAR 52.227-19.
  
 Gaussian, Inc.
 340 Quinnipiac St., Bldg. 40, Wallingford CT 06492
  
  
 ---------------------------------------------------------------
 Warning -- This program may not be used in any manner that
 competes with the business of Gaussian, Inc. or will provide
 assistance to any competitor of Gaussian, Inc.  The licensee
 of this program is prohibited from giving any competitor of
 Gaussian, Inc. access to this program.  By using this program,
 the user acknowledges that Gaussian, Inc. is engaged in the
 business of creating and licensing software in the field of
 computational chemistry and represents and warrants to the
 licensee that it is not a competitor of Gaussian, Inc. and that
 it will not use this program in any manner prohibited above.
 ---------------------------------------------------------------
  

 Cite this work as:
 Gaussian 09, Revision C.01,
 M. J. Frisch, G. W. Trucks, H. B. Schlegel, G. E. Scuseria, 
 M. A. Robb, J. R. Cheeseman, G. Scalmani, V. Barone, B. Mennucci, 
 G. A. Petersson, H. Nakatsuji, M. Caricato, X. Li, H. P. Hratchian, 
 A. F. Izmaylov, J. Bloino, G. Zheng, J. L. Sonnenberg, M. Hada, 
 M. Ehara, K. Toyota, R. Fukuda, J. Hasegawa, M. Ishida, T. Nakajima, 
 Y. Honda, O. Kitao, H. Nakai, T. Vreven, J. A. Montgomery, Jr., 
 J. E. Peralta, F. Ogliaro, M. Bearpark, J. J. Heyd, E. Brothers, 
 K. N. Kudin, V. N. Staroverov, T. Keith, R. Kobayashi, J. Normand, 
 K. Raghavachari, A. Rendell, J. C. Burant, S. S. Iyengar, J. Tomasi, 
 M. Cossi, N. Rega, J. M. Millam, M. Klene, J. E. Knox, J. B. Cross, 
 V. Bakken, C. Adamo, J. Jaramillo, R. Gomperts, R. E. Stratmann, 
 O. Yazyev, A. J. Austin, R. Cammi, C. Pomelli, J. W. Ochterski, 
 R. L. Martin, K. Morokuma, V. G. Zakrzewski, G. A. Voth, 
 P. Salvador, J. J. Dannenberg, S. Dapprich, A. D. Daniels, 
 O. Farkas, J. B. Foresman, J. V. Ortiz, J. Cioslowski, 
 and D. J. Fox, Gaussian, Inc., Wallingford CT, 2010.
 
 ******************************************
 Gaussian 09:  EM64L-G09RevC.01 23-Sep-2011
                 8-Aug-2018 
 ******************************************
 %nproc=2
 Will use up to    2 processors via shared memory.
 %mem=256MB
 %RWF=a13.rwf
 %chk=a1366
 %NoSave
 --------------------------------------
 #SP PBE1PBE/Def2TZVP geom=connectivity
 --------------------------------------
 1/38=1,57=2/1;
 2/12=2,17=6,18=5,40=1/2;
 3/5=44,7=101,11=2,16=1,25=1,30=1,74=-13/1,2,3;
 4//1;
 5/5=2,38=5/2;
 6/7=2,8=2,9=2,10=2,28=1/1;
 99/5=1,9=1/99;
 -------------
 Structure: 66
 -------------
 Charge =  0 Multiplicity = 1
 Symbolic Z-Matrix:
 H                     0.        0.        0. 
 C                     1.093     0.        0. 
 C                     1.655     1.421     0. 
 H                     1.41     -0.56     -0.885 
 H                     1.424    -0.557     0.88 
 H                     1.308     1.969    -0.883 
 Si                    3.513     1.515     0.035 
 H                     1.282     1.975     0.868 
 O                     4.203     0.773    -1.265 
 O                     3.968     0.824     1.454 
 H                     4.029     2.906    -0.04 
 H                     3.958    -0.138    -1.437 
 C                     5.301     0.766     1.905 
 H                     5.308     0.322     2.902 
 H                     5.747     1.766     1.967 
 H                     5.921     0.153     1.244 
 
                          Input orientation:                          
 ---------------------------------------------------------------------
 Center     Atomic      Atomic             Coordinates (Angstroms)
 Number     Number       Type             X           Y           Z
 ---------------------------------------------------------------------
      1          1           0        0.000000    0.000000    0.000000
      2          6           0        1.093000    0.000000    0.000000
      3          6           0        1.655000    1.421000    0.000000
      4          1           0        1.410000   -0.560000   -0.885000
      5          1           0        1.424000   -0.557000    0.880000
      6          1           0        1.308000    1.969000   -0.883000
      7         14           0        3.513000    1.515000    0.035000
      8          1           0        1.282000    1.975000    0.868000
      9          8           0        4.203000    0.773000   -1.265000
     10          8           0        3.968000    0.824000    1.454000
     11          1           0        4.029000    2.906000   -0.040000
     12          1           0        3.958000   -0.138000   -1.437000
     13          6           0        5.301000    0.766000    1.905000
     14          1           0        5.308000    0.322000    2.902000
     15          1           0        5.747000    1.766000    1.967000
     16          1           0        5.921000    0.153000    1.244000
 ---------------------------------------------------------------------
                    Distance matrix (angstroms):
                    1          2          3          4          5
     1  H    0.000000
     2  C    1.093000   0.000000
     3  C    2.181345   1.528098   0.000000
     4  H    1.756395   1.094218   2.183486   0.000000
     5  H    1.764207   1.092799   2.177210   1.765058   0.000000
     6  H    2.523393   2.168611   1.095629   2.531057   3.082580
     7  Si   3.825914   2.855320   1.860706   3.094291   3.061230
     8  H    2.509497   2.165588   1.095203   3.084740   2.536007
     9  O    4.456788   3.445265   2.917607   3.118034   3.754033
    10  O    4.305591   3.325465   2.796515   3.732257   2.951029
    11  H    4.967824   4.131166   2.800482   4.425646   4.429988
    12  H    4.213048   3.208152   3.130377   2.641040   3.459076
    13  C    5.684750   4.682205   4.165497   4.968124   4.222805
    14  H    6.058065   5.127525   4.793101   5.505788   4.466160
    15  H    6.325809   5.352342   4.553304   5.688036   5.026552
    16  H    6.052205   4.988039   4.621051   5.038862   4.567232
                    6          7          8          9         10
     6  H    0.000000
     7  Si   2.431227   0.000000
     8  H    1.751203   2.425459   0.000000
     9  O    3.155529   1.648231   3.811395   0.000000
    10  O    3.721316   1.642579   2.980401   2.729613   0.000000
    11  H    2.998743   1.485517   3.039282   2.465885   2.563295
    12  H    3.430578   2.257702   4.115674   0.958921   3.046871
    13  C    5.016393   2.693482   4.323125   3.354781   1.408423
    14  H    5.747942   3.586776   4.803982   4.334549   2.035757
    15  H    5.279056   2.964183   4.603011   3.716962   2.077348
    16  H    5.394604   3.019137   4.998138   3.103386   2.075705
                   11         12         13         14         15
    11  H    0.000000
    12  H    3.350013   0.000000
    13  C    3.159210   3.713466   0.000000
    14  H    4.119255   4.567387   1.091418   0.000000
    15  H    2.877355   4.291032   1.096704   1.775410   0.000000
    16  H    3.578733   3.335538   1.094116   1.775752   1.776168
                   16
    16  H    0.000000
 Stoichiometry    C3H10O2Si
 Framework group  C1[X(C3H10O2Si)]
 Deg. of freedom    42
 Full point group                 C1      NOp   1
 Largest Abelian subgroup         C1      NOp   1
 Largest concise Abelian subgroup C1      NOp   1
                         Standard orientation:                         
 ---------------------------------------------------------------------
 Center     Atomic      Atomic             Coordinates (Angstroms)
 Number     Number       Type             X           Y           Z
 ---------------------------------------------------------------------
      1          1           0       -3.225040   -1.205094   -0.490348
      2          6           0       -2.231138   -0.778815   -0.648758
      3          6           0       -1.618083   -0.281050    0.659478
      4          1           0       -2.345777    0.031267   -1.375352
      5          1           0       -1.609486   -1.550655   -1.109215
      6          1           0       -2.256161    0.485485    1.113002
      7         14           0        0.092551    0.430525    0.487384
      8          1           0       -1.561765   -1.098854    1.385766
      9          8           0        0.133950    1.723775   -0.533623
     10          8           0        1.038238   -0.804163   -0.041096
     11          1           0        0.630886    0.971945    1.761676
     12          1           0       -0.224725    1.604374   -1.414887
     13          6           0        2.431049   -0.701416   -0.223238
     14          1           0        2.814139   -1.682731   -0.508646
     15          1           0        2.933808   -0.387209    0.699404
     16          1           0        2.679935    0.014915   -1.011917
 ---------------------------------------------------------------------
 Rotational constants (GHZ):      4.0567906      1.9003249      1.5821736
 Standard basis: def2TZVP (5D, 7F)
 There are   252 symmetry adapted basis functions of A   symmetry.
 Integral buffers will be    131072 words long.
 Raffenetti 2 integral format.
 Two-electron integral symmetry is turned on.
   252 basis functions,   404 primitive gaussians,   282 cartesian basis functions
    29 alpha electrons       29 beta electrons
       nuclear repulsion energy       329.6280113684 Hartrees.
 NAtoms=   16 NActive=   16 NUniq=   16 SFac= 1.00D+00 NAtFMM=   60 NAOKFM=F Big=F
 One-electron integrals computed using PRISM.
   1 Symmetry operations used in ECPInt.
 ECPInt:  NShTT=    5886 NPrTT=   17754 LenC2=    5781 LenP2D=   13914.
 LDataN:  DoStor=T MaxTD1= 6 Len=  172
 NBasis=   252 RedAO= T  NBF=   252
 NBsUse=   252 1.00D-06 NBFU=   252
 Harris functional with IExCor= 1009 diagonalized for initial guess.
 ExpMin= 7.01D-02 ExpMax= 4.48D+04 ExpMxC= 1.53D+03 IAcc=2 IRadAn=         4 AccDes= 0.00D+00
 HarFok:  IExCor= 1009 AccDes= 0.00D+00 IRadAn=         4 IDoV= 1
 ScaDFX=  1.000000  1.000000  1.000000  1.000000
 FoFCou: FMM=F IPFlag=           0 FMFlag=      100000 FMFlg1=           0
         NFxFlg=           0 DoJE=T BraDBF=F KetDBF=T FulRan=T
         Omega=  0.000000  0.000000  1.000000  0.000000  0.000000 ICntrl=     500 IOpCl=  0
         NMat0=    1 NMatS0=    1 NMatT0=    0 NMatD0=    1 NMtDS0=    0 NMtDT0=    0
         I1Cent=           4 NGrid=           0.
 Petite list used in FoFCou.
 Initial guess orbital symmetries:
       Occupied  (A) (A) (A) (A) (A) (A) (A) (A) (A) (A) (A) (A)
                 (A) (A) (A) (A) (A) (A) (A) (A) (A) (A) (A) (A)
                 (A) (A) (A) (A) (A)
       Virtual   (A) (A) (A) (A) (A) (A) (A) (A) (A) (A) (A) (A)
                 (A) (A) (A) (A) (A) (A) (A) (A) (A) (A) (A) (A)
                 (A) (A) (A) (A) (A) (A) (A) (A) (A) (A) (A) (A)
                 (A) (A) (A) (A) (A) (A) (A) (A) (A) (A) (A) (A)
                 (A) (A) (A) (A) (A) (A) (A) (A) (A) (A) (A) (A)
                 (A) (A) (A) (A) (A) (A) (A) (A) (A) (A) (A) (A)
                 (A) (A) (A) (A) (A) (A) (A) (A) (A) (A) (A) (A)
                 (A) (A) (A) (A) (A) (A) (A) (A) (A) (A) (A) (A)
                 (A) (A) (A) (A) (A) (A) (A) (A) (A) (A) (A) (A)
                 (A) (A) (A) (A) (A) (A) (A) (A) (A) (A) (A) (A)
                 (A) (A) (A) (A) (A) (A) (A) (A) (A) (A) (A) (A)
                 (A) (A) (A) (A) (A) (A) (A) (A) (A) (A) (A) (A)
                 (A) (A) (A) (A) (A) (A) (A) (A) (A) (A) (A) (A)
                 (A) (A) (A) (A) (A) (A) (A) (A) (A) (A) (A) (A)
                 (A) (A) (A) (A) (A) (A) (A) (A) (A) (A) (A) (A)
                 (A) (A) (A) (A) (A) (A) (A) (A) (A) (A) (A) (A)
                 (A) (A) (A) (A) (A) (A) (A) (A) (A) (A) (A) (A)
                 (A) (A) (A) (A) (A) (A) (A) (A) (A) (A) (A) (A)
                 (A) (A) (A) (A) (A) (A) (A)
 The electronic state of the initial guess is 1-A.
 Requested convergence on RMS density matrix=1.00D-08 within 128 cycles.
 Requested convergence on MAX density matrix=1.00D-06.
 Requested convergence on             energy=1.00D-06.
 No special actions if energy rises.
 Integral accuracy reduced to 1.0D-05 until final iterations.
 Initial convergence to 1.0D-05 achieved.  Increase integral accuracy.
 SCF Done:  E(RPBE1PBE) =  -560.061306299     A.U. after   12 cycles
             Convg  =    0.6922D-08             -V/T =  2.0033

 **********************************************************************

            Population analysis using the SCF density.

 **********************************************************************

 Orbital symmetries:
       Occupied  (A) (A) (A) (A) (A) (A) (A) (A) (A) (A) (A) (A)
                 (A) (A) (A) (A) (A) (A) (A) (A) (A) (A) (A) (A)
                 (A) (A) (A) (A) (A)
       Virtual   (A) (A) (A) (A) (A) (A) (A) (A) (A) (A) (A) (A)
                 (A) (A) (A) (A) (A) (A) (A) (A) (A) (A) (A) (A)
                 (A) (A) (A) (A) (A) (A) (A) (A) (A) (A) (A) (A)
                 (A) (A) (A) (A) (A) (A) (A) (A) (A) (A) (A) (A)
                 (A) (A) (A) (A) (A) (A) (A) (A) (A) (A) (A) (A)
                 (A) (A) (A) (A) (A) (A) (A) (A) (A) (A) (A) (A)
                 (A) (A) (A) (A) (A) (A) (A) (A) (A) (A) (A) (A)
                 (A) (A) (A) (A) (A) (A) (A) (A) (A) (A) (A) (A)
                 (A) (A) (A) (A) (A) (A) (A) (A) (A) (A) (A) (A)
                 (A) (A) (A) (A) (A) (A) (A) (A) (A) (A) (A) (A)
                 (A) (A) (A) (A) (A) (A) (A) (A) (A) (A) (A) (A)
                 (A) (A) (A) (A) (A) (A) (A) (A) (A) (A) (A) (A)
                 (A) (A) (A) (A) (A) (A) (A) (A) (A) (A) (A) (A)
                 (A) (A) (A) (A) (A) (A) (A) (A) (A) (A) (A) (A)
                 (A) (A) (A) (A) (A) (A) (A) (A) (A) (A) (A) (A)
                 (A) (A) (A) (A) (A) (A) (A) (A) (A) (A) (A) (A)
                 (A) (A) (A) (A) (A) (A) (A) (A) (A) (A) (A) (A)
                 (A) (A) (A) (A) (A) (A) (A) (A) (A) (A) (A) (A)
                 (A) (A) (A) (A) (A) (A) (A)
 The electronic state is 1-A.
 Alpha  occ. eigenvalues --  -66.25382 -19.20248 -19.20047 -10.26471 -10.21720
 Alpha  occ. eigenvalues --  -10.20821  -5.33043  -3.66568  -3.66461  -3.66314
 Alpha  occ. eigenvalues --   -1.04446  -1.02287  -0.78184  -0.70541  -0.64036
 Alpha  occ. eigenvalues --   -0.56687  -0.51198  -0.46864  -0.46636  -0.45967
 Alpha  occ. eigenvalues --   -0.43563  -0.40951  -0.39062  -0.37230  -0.36584
 Alpha  occ. eigenvalues --   -0.35655  -0.31904  -0.30441  -0.29683
 Alpha virt. eigenvalues --    0.02302   0.05538   0.06038   0.08020   0.08973
 Alpha virt. eigenvalues --    0.10166   0.10886   0.11391   0.12290   0.13488
 Alpha virt. eigenvalues --    0.14014   0.15230   0.16138   0.16605   0.19308
 Alpha virt. eigenvalues --    0.21314   0.22077   0.23474   0.24642   0.24998
 Alpha virt. eigenvalues --    0.26649   0.28424   0.29110   0.29462   0.31340
 Alpha virt. eigenvalues --    0.32810   0.36606   0.39263   0.40059   0.40716
 Alpha virt. eigenvalues --    0.41932   0.42538   0.44107   0.45226   0.45645
 Alpha virt. eigenvalues --    0.46199   0.47456   0.47885   0.49959   0.50512
 Alpha virt. eigenvalues --    0.51259   0.53350   0.55323   0.56928   0.60162
 Alpha virt. eigenvalues --    0.60701   0.63022   0.65627   0.66099   0.67867
 Alpha virt. eigenvalues --    0.73963   0.74396   0.75231   0.78040   0.80999
 Alpha virt. eigenvalues --    0.83121   0.83816   0.86367   0.88030   0.91881
 Alpha virt. eigenvalues --    0.93117   0.95552   0.96961   0.99534   1.00785
 Alpha virt. eigenvalues --    1.04217   1.06992   1.08157   1.09134   1.11919
 Alpha virt. eigenvalues --    1.12324   1.12652   1.15690   1.19081   1.21086
 Alpha virt. eigenvalues --    1.24809   1.28901   1.32410   1.36569   1.41135
 Alpha virt. eigenvalues --    1.42100   1.46469   1.47849   1.49633   1.52502
 Alpha virt. eigenvalues --    1.53052   1.54505   1.55126   1.56391   1.57831
 Alpha virt. eigenvalues --    1.59374   1.62660   1.63585   1.63995   1.65946
 Alpha virt. eigenvalues --    1.68271   1.71811   1.75500   1.77801   1.79269
 Alpha virt. eigenvalues --    1.80658   1.83148   1.86046   1.88848   1.91851
 Alpha virt. eigenvalues --    1.95076   1.95798   1.99796   2.01641   2.03942
 Alpha virt. eigenvalues --    2.05385   2.08290   2.10907   2.12148   2.15010
 Alpha virt. eigenvalues --    2.17516   2.18687   2.26546   2.28959   2.30214
 Alpha virt. eigenvalues --    2.32674   2.33165   2.34087   2.35251   2.35713
 Alpha virt. eigenvalues --    2.36272   2.40393   2.43983   2.47511   2.49337
 Alpha virt. eigenvalues --    2.51085   2.51779   2.54738   2.56135   2.58272
 Alpha virt. eigenvalues --    2.59624   2.61326   2.65366   2.67171   2.70982
 Alpha virt. eigenvalues --    2.72942   2.77267   2.80426   2.83153   2.84853
 Alpha virt. eigenvalues --    2.86313   2.93334   2.94409   2.99950   3.01823
 Alpha virt. eigenvalues --    3.06659   3.09187   3.10670   3.11551   3.15160
 Alpha virt. eigenvalues --    3.21004   3.22460   3.23328   3.27452   3.29963
 Alpha virt. eigenvalues --    3.32041   3.32720   3.37359   3.40350   3.44389
 Alpha virt. eigenvalues --    3.44684   3.46040   3.47296   3.53400   3.53939
 Alpha virt. eigenvalues --    3.58365   3.61996   3.62252   3.65141   3.76769
 Alpha virt. eigenvalues --    3.81333   3.87911   3.92817   3.95875   4.03091
 Alpha virt. eigenvalues --    4.19088   4.24203   4.25106   4.34245   4.36910
 Alpha virt. eigenvalues --    4.41693   4.46996   4.53443   4.57202   4.78725
 Alpha virt. eigenvalues --    5.15693   5.16834   5.17959   5.18183   5.28288
 Alpha virt. eigenvalues --    5.29535   5.38557   5.41728   5.45492   5.50027
 Alpha virt. eigenvalues --    5.79886   5.86575   6.03586   6.22675   6.41780
 Alpha virt. eigenvalues --    6.42697   6.53772   6.58896   6.60288   6.66180
 Alpha virt. eigenvalues --    6.67783   6.78735   6.82000   6.96750   7.06017
 Alpha virt. eigenvalues --    7.15737   7.22811  11.92753  22.37058  22.40975
 Alpha virt. eigenvalues --   22.45350  43.62160  43.94510
          Condensed to atoms (all electrons):
              1          2          3          4          5          6
     1  H    0.550999   0.408200  -0.033402  -0.025237  -0.024588  -0.006878
     2  C    0.408200   4.940995   0.313924   0.400758   0.412852  -0.029125
     3  C   -0.033402   0.313924   5.033282  -0.044670  -0.039659   0.387292
     4  H   -0.025237   0.400758  -0.044670   0.586113  -0.027681  -0.004975
     5  H   -0.024588   0.412852  -0.039659  -0.027681   0.533814   0.007756
     6  H   -0.006878  -0.029125   0.387292  -0.004975   0.007756   0.578455
     7  Si   0.007756  -0.019758   0.423415  -0.005849  -0.008321  -0.028774
     8  H   -0.006870  -0.028017   0.369866   0.008931  -0.004088  -0.026472
     9  O    0.000013  -0.003315  -0.038183   0.004722  -0.000404  -0.001037
    10  O    0.000016  -0.005022  -0.031443   0.000454   0.007568   0.001299
    11  H   -0.000114   0.001784  -0.034944   0.000209   0.000409   0.001357
    12  H   -0.000089   0.000429  -0.002176   0.002177   0.000025   0.000073
    13  C    0.000010  -0.000090   0.001999   0.000097  -0.000067  -0.000128
    14  H   -0.000004   0.000223  -0.000421  -0.000003  -0.000163   0.000000
    15  H    0.000001  -0.000042  -0.000033  -0.000001   0.000082   0.000005
    16  H    0.000001  -0.000125   0.000821  -0.000015   0.000011   0.000014
              7          8          9         10         11         12
     1  H    0.007756  -0.006870   0.000013   0.000016  -0.000114  -0.000089
     2  C   -0.019758  -0.028017  -0.003315  -0.005022   0.001784   0.000429
     3  C    0.423415   0.369866  -0.038183  -0.031443  -0.034944  -0.002176
     4  H   -0.005849   0.008931   0.004722   0.000454   0.000209   0.002177
     5  H   -0.008321  -0.004088  -0.000404   0.007568   0.000409   0.000025
     6  H   -0.028774  -0.026472  -0.001037   0.001299   0.001357   0.000073
     7  Si  11.891174  -0.014369   0.466758   0.449772   0.391249  -0.027970
     8  H   -0.014369   0.578947   0.001977   0.001878   0.000843  -0.000036
     9  O    0.466758   0.001977   7.848746  -0.035107  -0.015974   0.300143
    10  O    0.449772   0.001878  -0.035107   7.842911  -0.026348  -0.001085
    11  H    0.391249   0.000843  -0.015974  -0.026348   0.730185   0.004105
    12  H   -0.027970  -0.000036   0.300143  -0.001085   0.004105   0.404394
    13  C   -0.049790   0.000080  -0.006858   0.261744   0.002415   0.000685
    14  H    0.007731   0.000001   0.000086  -0.041081  -0.000227   0.000020
    15  H   -0.017776  -0.000020  -0.000473  -0.042618   0.010118  -0.000026
    16  H   -0.004512  -0.000018   0.006631  -0.043953  -0.001981   0.000316
             13         14         15         16
     1  H    0.000010  -0.000004   0.000001   0.000001
     2  C   -0.000090   0.000223  -0.000042  -0.000125
     3  C    0.001999  -0.000421  -0.000033   0.000821
     4  H    0.000097  -0.000003  -0.000001  -0.000015
     5  H   -0.000067  -0.000163   0.000082   0.000011
     6  H   -0.000128   0.000000   0.000005   0.000014
     7  Si  -0.049790   0.007731  -0.017776  -0.004512
     8  H    0.000080   0.000001  -0.000020  -0.000018
     9  O   -0.006858   0.000086  -0.000473   0.006631
    10  O    0.261744  -0.041081  -0.042618  -0.043953
    11  H    0.002415  -0.000227   0.010118  -0.001981
    12  H    0.000685   0.000020  -0.000026   0.000316
    13  C    4.768936   0.402510   0.418072   0.412122
    14  H    0.402510   0.566432  -0.030343  -0.033612
    15  H    0.418072  -0.030343   0.593159  -0.047754
    16  H    0.412122  -0.033612  -0.047754   0.592086
 Mulliken atomic charges:
              1
     1  H    0.130188
     2  C   -0.393672
     3  C   -0.305667
     4  H    0.104971
     5  H    0.142453
     6  H    0.121138
     7  Si   0.539264
     8  H    0.117367
     9  O   -0.527724
    10  O   -0.338985
    11  H   -0.063086
    12  H    0.319016
    13  C   -0.211738
    14  H    0.128853
    15  H    0.117651
    16  H    0.119970
 Sum of Mulliken atomic charges =   0.00000
 Mulliken charges with hydrogens summed into heavy atoms:
              1
     2  C   -0.016060
     3  C   -0.067161
     7  Si   0.476178
     9  O   -0.208709
    10  O   -0.338985
    13  C    0.154736
 Sum of Mulliken charges with hydrogens summed into heavy atoms =   0.00000
 Electronic spatial extent (au):  <R**2>=            866.7549
 Charge=              0.0000 electrons
 Dipole moment (field-independent basis, Debye):
    X=             -0.2556    Y=             -0.5810    Z=             -0.8850  Tot=              1.0891
 Quadrupole moment (field-independent basis, Debye-Ang):
   XX=            -41.1499   YY=            -49.3039   ZZ=            -42.8629
   XY=             -1.6136   XZ=             -0.1654   YZ=             -1.7251
 Traceless Quadrupole moment (field-independent basis, Debye-Ang):
   XX=              3.2890   YY=             -4.8650   ZZ=              1.5760
   XY=             -1.6136   XZ=             -0.1654   YZ=             -1.7251
 Octapole moment (field-independent basis, Debye-Ang**2):
  XXX=             14.5080  YYY=             -6.3939  ZZZ=            -10.6870  XYY=             -0.7931
  XXY=             -1.9799  XXZ=             -1.3731  XZZ=              0.5585  YZZ=              4.9698
  YYZ=             -3.3549  XYZ=              1.8873
 Hexadecapole moment (field-independent basis, Debye-Ang**3):
 XXXX=           -705.1585 YYYY=           -291.1539 ZZZZ=           -166.5890 XXXY=            -12.4560
 XXXZ=             -6.4576 YYYX=            -11.9777 YYYZ=             -6.8134 ZZZX=             -2.4957
 ZZZY=            -19.4944 XXYY=           -162.2220 XXZZ=           -151.0490 YYZZ=            -65.8017
 XXYZ=             -0.9765 YYXZ=             -1.3797 ZZXY=             -5.1363
 N-N= 3.296280113684D+02 E-N=-1.983242583289D+03  KE= 5.582409687374D+02
 1\1\GINC-TARSUS4\SP\RPBE1PBE\def2TZVP\C3H10O2Si1\RENATO\08-Aug-2018\0\
 \#SP PBE1PBE/Def2TZVP geom=connectivity\\Structure: 66\\0,1\H,0,0.,0.,
 0.\C,0,1.093,0.,0.\C,0,1.655,1.421,0.\H,0,1.41,-0.56,-0.885\H,0,1.424,
 -0.557,0.88\H,0,1.308,1.969,-0.883\Si,0,3.513,1.515,0.035\H,0,1.282,1.
 975,0.868\O,0,4.203,0.773,-1.265\O,0,3.968,0.824,1.454\H,0,4.029,2.906
 ,-0.04\H,0,3.958,-0.138,-1.437\C,0,5.301,0.766,1.905\H,0,5.308,0.322,2
 .902\H,0,5.747,1.766,1.967\H,0,5.921,0.153,1.244\\Version=EM64L-G09Rev
 C.01\State=1-A\HF=-560.0613063\RMSD=6.922e-09\Dipole=-0.1301207,-0.392
 5561,0.1121098\Quadrupole=0.8228977,0.4513825,-1.2742802,-1.091298,2.6
 927784,1.9033018\PG=C01 [X(C3H10O2Si1)]\\@


 AND ALL THIS SCIENCE I DON'T UNDERSTAND
 IT'S JUST MY JOB FIVE DAYS A WEEK

                           -- ELTON JOHN, "ROCKET MAN"
 Job cpu time:  0 days  0 hours  9 minutes 46.0 seconds.
 File lengths (MBytes):  RWF=     40 Int=      0 D2E=      0 Chk=      3 Scr=      1
 Normal termination of Gaussian 09 at Wed Aug  8 18:11:48 2018.
