 Entering Gaussian System, Link 0=g09
 Initial command:
 /usr/local/gaussian09/g09/l1.exe /scratch/renato/Gau-10014.inp -scrdir=/scratch/renato/
 Entering Link 1 = /usr/local/gaussian09/g09/l1.exe PID=     10016.
  
 Copyright (c) 1988,1990,1992,1993,1995,1998,2003,2009,2011,
            Gaussian, Inc.  All Rights Reserved.
  
 This is part of the Gaussian(R) 09 program.  It is based on
 the Gaussian(R) 03 system (copyright 2003, Gaussian, Inc.),
 the Gaussian(R) 98 system (copyright 1998, Gaussian, Inc.),
 the Gaussian(R) 94 system (copyright 1995, Gaussian, Inc.),
 the Gaussian 92(TM) system (copyright 1992, Gaussian, Inc.),
 the Gaussian 90(TM) system (copyright 1990, Gaussian, Inc.),
 the Gaussian 88(TM) system (copyright 1988, Gaussian, Inc.),
 the Gaussian 86(TM) system (copyright 1986, Carnegie Mellon
 University), and the Gaussian 82(TM) system (copyright 1983,
 Carnegie Mellon University). Gaussian is a federally registered
 trademark of Gaussian, Inc.
  
 This software contains proprietary and confidential information,
 including trade secrets, belonging to Gaussian, Inc.
  
 This software is provided under written license and may be
 used, copied, transmitted, or stored only in accord with that
 written license.
  
 The following legend is applicable only to US Government
 contracts under FAR:
  
                    RESTRICTED RIGHTS LEGEND
  
 Use, reproduction and disclosure by the US Government is
 subject to restrictions as set forth in subparagraphs (a)
 and (c) of the Commercial Computer Software - Restricted
 Rights clause in FAR 52.227-19.
  
 Gaussian, Inc.
 340 Quinnipiac St., Bldg. 40, Wallingford CT 06492
  
  
 ---------------------------------------------------------------
 Warning -- This program may not be used in any manner that
 competes with the business of Gaussian, Inc. or will provide
 assistance to any competitor of Gaussian, Inc.  The licensee
 of this program is prohibited from giving any competitor of
 Gaussian, Inc. access to this program.  By using this program,
 the user acknowledges that Gaussian, Inc. is engaged in the
 business of creating and licensing software in the field of
 computational chemistry and represents and warrants to the
 licensee that it is not a competitor of Gaussian, Inc. and that
 it will not use this program in any manner prohibited above.
 ---------------------------------------------------------------
  

 Cite this work as:
 Gaussian 09, Revision C.01,
 M. J. Frisch, G. W. Trucks, H. B. Schlegel, G. E. Scuseria, 
 M. A. Robb, J. R. Cheeseman, G. Scalmani, V. Barone, B. Mennucci, 
 G. A. Petersson, H. Nakatsuji, M. Caricato, X. Li, H. P. Hratchian, 
 A. F. Izmaylov, J. Bloino, G. Zheng, J. L. Sonnenberg, M. Hada, 
 M. Ehara, K. Toyota, R. Fukuda, J. Hasegawa, M. Ishida, T. Nakajima, 
 Y. Honda, O. Kitao, H. Nakai, T. Vreven, J. A. Montgomery, Jr., 
 J. E. Peralta, F. Ogliaro, M. Bearpark, J. J. Heyd, E. Brothers, 
 K. N. Kudin, V. N. Staroverov, T. Keith, R. Kobayashi, J. Normand, 
 K. Raghavachari, A. Rendell, J. C. Burant, S. S. Iyengar, J. Tomasi, 
 M. Cossi, N. Rega, J. M. Millam, M. Klene, J. E. Knox, J. B. Cross, 
 V. Bakken, C. Adamo, J. Jaramillo, R. Gomperts, R. E. Stratmann, 
 O. Yazyev, A. J. Austin, R. Cammi, C. Pomelli, J. W. Ochterski, 
 R. L. Martin, K. Morokuma, V. G. Zakrzewski, G. A. Voth, 
 P. Salvador, J. J. Dannenberg, S. Dapprich, A. D. Daniels, 
 O. Farkas, J. B. Foresman, J. V. Ortiz, J. Cioslowski, 
 and D. J. Fox, Gaussian, Inc., Wallingford CT, 2010.
 
 ******************************************
 Gaussian 09:  EM64L-G09RevC.01 23-Sep-2011
                 8-Aug-2018 
 ******************************************
 %nproc=2
 Will use up to    2 processors via shared memory.
 %mem=256MB
 %RWF=a13.rwf
 %chk=a1374
 %NoSave
 --------------------------------------
 #SP PBE1PBE/Def2TZVP geom=connectivity
 --------------------------------------
 1/38=1,57=2/1;
 2/12=2,17=6,18=5,40=1/2;
 3/5=44,7=101,11=2,16=1,25=1,30=1,74=-13/1,2,3;
 4//1;
 5/5=2,38=5/2;
 6/7=2,8=2,9=2,10=2,28=1/1;
 99/5=1,9=1/99;
 -------------
 Structure: 74
 -------------
 Charge =  0 Multiplicity = 1
 Symbolic Z-Matrix:
 H                     0.        0.        0. 
 C                     1.093     0.        0. 
 C                     1.655     1.421     0. 
 H                     1.41     -0.56     -0.885 
 H                     1.424    -0.557     0.88 
 H                     1.308     1.969    -0.883 
 Si                    3.513     1.515     0.035 
 H                     1.282     1.975     0.868 
 O                     4.272     0.792    -1.237 
 O                     3.968     0.824     1.454 
 H                     4.029     2.906    -0.04 
 H                     4.055    -0.124    -1.42 
 C                     5.301     0.766     1.905 
 H                     5.308     0.322     2.902 
 H                     5.747     1.766     1.967 
 H                     5.921     0.153     1.244 
 
                          Input orientation:                          
 ---------------------------------------------------------------------
 Center     Atomic      Atomic             Coordinates (Angstroms)
 Number     Number       Type             X           Y           Z
 ---------------------------------------------------------------------
      1          1           0        0.000000    0.000000    0.000000
      2          6           0        1.093000    0.000000    0.000000
      3          6           0        1.655000    1.421000    0.000000
      4          1           0        1.410000   -0.560000   -0.885000
      5          1           0        1.424000   -0.557000    0.880000
      6          1           0        1.308000    1.969000   -0.883000
      7         14           0        3.513000    1.515000    0.035000
      8          1           0        1.282000    1.975000    0.868000
      9          8           0        4.272000    0.792000   -1.237000
     10          8           0        3.968000    0.824000    1.454000
     11          1           0        4.029000    2.906000   -0.040000
     12          1           0        4.055000   -0.124000   -1.420000
     13          6           0        5.301000    0.766000    1.905000
     14          1           0        5.308000    0.322000    2.902000
     15          1           0        5.747000    1.766000    1.967000
     16          1           0        5.921000    0.153000    1.244000
 ---------------------------------------------------------------------
                    Distance matrix (angstroms):
                    1          2          3          4          5
     1  H    0.000000
     2  C    1.093000   0.000000
     3  C    2.181345   1.528098   0.000000
     4  H    1.756395   1.094218   2.183486   0.000000
     5  H    1.764207   1.092799   2.177210   1.765058   0.000000
     6  H    2.523393   2.168611   1.095629   2.531057   3.082580
     7  Si   3.825914   2.855320   1.860706   3.094291   3.061230
     8  H    2.509497   2.165588   1.095203   3.084740   2.536007
     9  O    4.517457   3.501924   2.962178   3.184784   3.796392
    10  O    4.305591   3.325465   2.796515   3.732257   2.951029
    11  H    4.967824   4.131166   2.800482   4.425646   4.429988
    12  H    4.298232   3.287129   3.188013   2.733559   3.521314
    13  C    5.684750   4.682205   4.165497   4.968124   4.222805
    14  H    6.058065   5.127525   4.793101   5.505788   4.466160
    15  H    6.325809   5.352342   4.553304   5.688036   5.026552
    16  H    6.052205   4.988039   4.621051   5.038862   4.567232
                    6          7          8          9         10
     6  H    0.000000
     7  Si   2.431227   0.000000
     8  H    1.751203   2.425459   0.000000
     9  O    3.208729   1.648270   3.843256   0.000000
    10  O    3.721316   1.642579   2.980401   2.708306   0.000000
    11  H    2.998743   1.485517   3.039282   2.441486   2.563295
    12  H    3.495000   2.257678   4.162965   0.958975   3.027565
    13  C    5.016393   2.693482   4.323125   3.306309   1.408423
    14  H    5.747942   3.586776   4.803982   4.292495   2.035757
    15  H    5.279056   2.964183   4.603011   3.659224   2.077348
    16  H    5.394604   3.019137   4.998138   3.046782   2.075705
                   11         12         13         14         15
    11  H    0.000000
    12  H    3.329561   0.000000
    13  C    3.159210   3.660634   0.000000
    14  H    4.119255   4.522014   1.091418   0.000000
    15  H    2.877355   4.231635   1.096704   1.775410   0.000000
    16  H    3.578733   3.264289   1.094116   1.775752   1.776168
                   16
    16  H    0.000000
 Stoichiometry    C3H10O2Si
 Framework group  C1[X(C3H10O2Si)]
 Deg. of freedom    42
 Full point group                 C1      NOp   1
 Largest Abelian subgroup         C1      NOp   1
 Largest concise Abelian subgroup C1      NOp   1
                         Standard orientation:                         
 ---------------------------------------------------------------------
 Center     Atomic      Atomic             Coordinates (Angstroms)
 Number     Number       Type             X           Y           Z
 ---------------------------------------------------------------------
      1          1           0       -3.251116   -1.165230   -0.498778
      2          6           0       -2.251002   -0.753058   -0.655415
      3          6           0       -1.636270   -0.257215    0.652763
      4          1           0       -2.352037    0.054959   -1.386314
      5          1           0       -1.638014   -1.535366   -1.109784
      6          1           0       -2.265726    0.519974    1.100162
      7         14           0        0.084381    0.430568    0.483826
      8          1           0       -1.593652   -1.072175    1.383170
      9          8           0        0.222553    1.722686   -0.530143
     10          8           0        1.015427   -0.819205   -0.035105
     11          1           0        0.625113    0.970898    1.757566
     12          1           0       -0.113466    1.623340   -1.422811
     13          6           0        2.410166   -0.735985   -0.212394
     14          1           0        2.781148   -1.723707   -0.491629
     15          1           0        2.913608   -0.424071    0.710653
     16          1           0        2.671599   -0.026873   -1.003535
 ---------------------------------------------------------------------
 Rotational constants (GHZ):      4.0520091      1.8996789      1.5787672
 Standard basis: def2TZVP (5D, 7F)
 There are   252 symmetry adapted basis functions of A   symmetry.
 Integral buffers will be    131072 words long.
 Raffenetti 2 integral format.
 Two-electron integral symmetry is turned on.
   252 basis functions,   404 primitive gaussians,   282 cartesian basis functions
    29 alpha electrons       29 beta electrons
       nuclear repulsion energy       329.5401953101 Hartrees.
 NAtoms=   16 NActive=   16 NUniq=   16 SFac= 1.00D+00 NAtFMM=   60 NAOKFM=F Big=F
 One-electron integrals computed using PRISM.
   1 Symmetry operations used in ECPInt.
 ECPInt:  NShTT=    5886 NPrTT=   17754 LenC2=    5780 LenP2D=   13918.
 LDataN:  DoStor=T MaxTD1= 6 Len=  172
 NBasis=   252 RedAO= T  NBF=   252
 NBsUse=   252 1.00D-06 NBFU=   252
 Harris functional with IExCor= 1009 diagonalized for initial guess.
 ExpMin= 7.01D-02 ExpMax= 4.48D+04 ExpMxC= 1.53D+03 IAcc=2 IRadAn=         4 AccDes= 0.00D+00
 HarFok:  IExCor= 1009 AccDes= 0.00D+00 IRadAn=         4 IDoV= 1
 ScaDFX=  1.000000  1.000000  1.000000  1.000000
 FoFCou: FMM=F IPFlag=           0 FMFlag=      100000 FMFlg1=           0
         NFxFlg=           0 DoJE=T BraDBF=F KetDBF=T FulRan=T
         Omega=  0.000000  0.000000  1.000000  0.000000  0.000000 ICntrl=     500 IOpCl=  0
         NMat0=    1 NMatS0=    1 NMatT0=    0 NMatD0=    1 NMtDS0=    0 NMtDT0=    0
         I1Cent=           4 NGrid=           0.
 Petite list used in FoFCou.
 Initial guess orbital symmetries:
       Occupied  (A) (A) (A) (A) (A) (A) (A) (A) (A) (A) (A) (A)
                 (A) (A) (A) (A) (A) (A) (A) (A) (A) (A) (A) (A)
                 (A) (A) (A) (A) (A)
       Virtual   (A) (A) (A) (A) (A) (A) (A) (A) (A) (A) (A) (A)
                 (A) (A) (A) (A) (A) (A) (A) (A) (A) (A) (A) (A)
                 (A) (A) (A) (A) (A) (A) (A) (A) (A) (A) (A) (A)
                 (A) (A) (A) (A) (A) (A) (A) (A) (A) (A) (A) (A)
                 (A) (A) (A) (A) (A) (A) (A) (A) (A) (A) (A) (A)
                 (A) (A) (A) (A) (A) (A) (A) (A) (A) (A) (A) (A)
                 (A) (A) (A) (A) (A) (A) (A) (A) (A) (A) (A) (A)
                 (A) (A) (A) (A) (A) (A) (A) (A) (A) (A) (A) (A)
                 (A) (A) (A) (A) (A) (A) (A) (A) (A) (A) (A) (A)
                 (A) (A) (A) (A) (A) (A) (A) (A) (A) (A) (A) (A)
                 (A) (A) (A) (A) (A) (A) (A) (A) (A) (A) (A) (A)
                 (A) (A) (A) (A) (A) (A) (A) (A) (A) (A) (A) (A)
                 (A) (A) (A) (A) (A) (A) (A) (A) (A) (A) (A) (A)
                 (A) (A) (A) (A) (A) (A) (A) (A) (A) (A) (A) (A)
                 (A) (A) (A) (A) (A) (A) (A) (A) (A) (A) (A) (A)
                 (A) (A) (A) (A) (A) (A) (A) (A) (A) (A) (A) (A)
                 (A) (A) (A) (A) (A) (A) (A) (A) (A) (A) (A) (A)
                 (A) (A) (A) (A) (A) (A) (A) (A) (A) (A) (A) (A)
                 (A) (A) (A) (A) (A) (A) (A)
 The electronic state of the initial guess is 1-A.
 Requested convergence on RMS density matrix=1.00D-08 within 128 cycles.
 Requested convergence on MAX density matrix=1.00D-06.
 Requested convergence on             energy=1.00D-06.
 No special actions if energy rises.
 Integral accuracy reduced to 1.0D-05 until final iterations.
 Initial convergence to 1.0D-05 achieved.  Increase integral accuracy.
 SCF Done:  E(RPBE1PBE) =  -560.061139617     A.U. after   12 cycles
             Convg  =    0.6726D-08             -V/T =  2.0033

 **********************************************************************

            Population analysis using the SCF density.

 **********************************************************************

 Orbital symmetries:
       Occupied  (A) (A) (A) (A) (A) (A) (A) (A) (A) (A) (A) (A)
                 (A) (A) (A) (A) (A) (A) (A) (A) (A) (A) (A) (A)
                 (A) (A) (A) (A) (A)
       Virtual   (A) (A) (A) (A) (A) (A) (A) (A) (A) (A) (A) (A)
                 (A) (A) (A) (A) (A) (A) (A) (A) (A) (A) (A) (A)
                 (A) (A) (A) (A) (A) (A) (A) (A) (A) (A) (A) (A)
                 (A) (A) (A) (A) (A) (A) (A) (A) (A) (A) (A) (A)
                 (A) (A) (A) (A) (A) (A) (A) (A) (A) (A) (A) (A)
                 (A) (A) (A) (A) (A) (A) (A) (A) (A) (A) (A) (A)
                 (A) (A) (A) (A) (A) (A) (A) (A) (A) (A) (A) (A)
                 (A) (A) (A) (A) (A) (A) (A) (A) (A) (A) (A) (A)
                 (A) (A) (A) (A) (A) (A) (A) (A) (A) (A) (A) (A)
                 (A) (A) (A) (A) (A) (A) (A) (A) (A) (A) (A) (A)
                 (A) (A) (A) (A) (A) (A) (A) (A) (A) (A) (A) (A)
                 (A) (A) (A) (A) (A) (A) (A) (A) (A) (A) (A) (A)
                 (A) (A) (A) (A) (A) (A) (A) (A) (A) (A) (A) (A)
                 (A) (A) (A) (A) (A) (A) (A) (A) (A) (A) (A) (A)
                 (A) (A) (A) (A) (A) (A) (A) (A) (A) (A) (A) (A)
                 (A) (A) (A) (A) (A) (A) (A) (A) (A) (A) (A) (A)
                 (A) (A) (A) (A) (A) (A) (A) (A) (A) (A) (A) (A)
                 (A) (A) (A) (A) (A) (A) (A) (A) (A) (A) (A) (A)
                 (A) (A) (A) (A) (A) (A) (A)
 The electronic state is 1-A.
 Alpha  occ. eigenvalues --  -66.25354 -19.20285 -19.19900 -10.26370 -10.21777
 Alpha  occ. eigenvalues --  -10.21014  -5.33017  -3.66546  -3.66430  -3.66287
 Alpha  occ. eigenvalues --   -1.04390  -1.02235  -0.78295  -0.70445  -0.64122
 Alpha  occ. eigenvalues --   -0.56707  -0.51104  -0.46775  -0.46574  -0.46029
 Alpha  occ. eigenvalues --   -0.43569  -0.40918  -0.39141  -0.37210  -0.36609
 Alpha  occ. eigenvalues --   -0.35699  -0.31804  -0.30463  -0.29670
 Alpha virt. eigenvalues --    0.02238   0.05581   0.06050   0.08003   0.08963
 Alpha virt. eigenvalues --    0.10198   0.10749   0.11511   0.12370   0.13517
 Alpha virt. eigenvalues --    0.14213   0.15264   0.15847   0.16402   0.19250
 Alpha virt. eigenvalues --    0.21318   0.22009   0.23581   0.24476   0.24939
 Alpha virt. eigenvalues --    0.26646   0.28261   0.29409   0.29501   0.31272
 Alpha virt. eigenvalues --    0.33106   0.36735   0.39456   0.40103   0.40683
 Alpha virt. eigenvalues --    0.41941   0.42488   0.44247   0.45143   0.45609
 Alpha virt. eigenvalues --    0.46319   0.47483   0.47872   0.50047   0.50586
 Alpha virt. eigenvalues --    0.51147   0.53402   0.55384   0.56731   0.59768
 Alpha virt. eigenvalues --    0.60883   0.62813   0.65262   0.66105   0.68188
 Alpha virt. eigenvalues --    0.73909   0.74647   0.75365   0.77841   0.81050
 Alpha virt. eigenvalues --    0.82957   0.84060   0.86329   0.88155   0.91942
 Alpha virt. eigenvalues --    0.93105   0.95600   0.96855   0.99490   1.00999
 Alpha virt. eigenvalues --    1.04195   1.07065   1.08355   1.09018   1.11726
 Alpha virt. eigenvalues --    1.12114   1.12509   1.15492   1.18908   1.21266
 Alpha virt. eigenvalues --    1.25247   1.28764   1.32203   1.36678   1.41203
 Alpha virt. eigenvalues --    1.41952   1.46478   1.47735   1.49780   1.52561
 Alpha virt. eigenvalues --    1.53189   1.54475   1.55084   1.56281   1.57615
 Alpha virt. eigenvalues --    1.59552   1.62485   1.63649   1.63694   1.65927
 Alpha virt. eigenvalues --    1.67800   1.72072   1.75424   1.77246   1.79653
 Alpha virt. eigenvalues --    1.80657   1.83159   1.86526   1.89090   1.91822
 Alpha virt. eigenvalues --    1.94903   1.95798   1.99662   2.01783   2.03882
 Alpha virt. eigenvalues --    2.05420   2.08388   2.10372   2.12180   2.15141
 Alpha virt. eigenvalues --    2.17078   2.18608   2.26730   2.29244   2.30048
 Alpha virt. eigenvalues --    2.32848   2.33152   2.34260   2.35354   2.35852
 Alpha virt. eigenvalues --    2.36269   2.40543   2.44175   2.47427   2.49135
 Alpha virt. eigenvalues --    2.50994   2.51891   2.54752   2.56181   2.58365
 Alpha virt. eigenvalues --    2.59542   2.61350   2.65283   2.66834   2.71057
 Alpha virt. eigenvalues --    2.73009   2.77122   2.80606   2.83378   2.84735
 Alpha virt. eigenvalues --    2.86848   2.93152   2.94699   2.99948   3.02222
 Alpha virt. eigenvalues --    3.07046   3.09042   3.10633   3.11454   3.15173
 Alpha virt. eigenvalues --    3.20756   3.22346   3.23184   3.27429   3.30041
 Alpha virt. eigenvalues --    3.32082   3.32825   3.37101   3.40290   3.44262
 Alpha virt. eigenvalues --    3.44779   3.46135   3.47577   3.53317   3.54141
 Alpha virt. eigenvalues --    3.58536   3.61445   3.62608   3.65151   3.76775
 Alpha virt. eigenvalues --    3.81153   3.87767   3.92636   3.95816   4.03015
 Alpha virt. eigenvalues --    4.19261   4.24076   4.25296   4.34183   4.37052
 Alpha virt. eigenvalues --    4.41656   4.46865   4.53395   4.57165   4.78607
 Alpha virt. eigenvalues --    5.15630   5.16719   5.18012   5.18327   5.28437
 Alpha virt. eigenvalues --    5.29790   5.38618   5.41730   5.45469   5.49995
 Alpha virt. eigenvalues --    5.79948   5.86763   6.03748   6.22739   6.41383
 Alpha virt. eigenvalues --    6.42059   6.53530   6.58721   6.60367   6.66969
 Alpha virt. eigenvalues --    6.68106   6.78901   6.81933   6.97279   7.06201
 Alpha virt. eigenvalues --    7.15466   7.22286  11.92194  22.37059  22.40898
 Alpha virt. eigenvalues --   22.45257  43.61933  43.94431
          Condensed to atoms (all electrons):
              1          2          3          4          5          6
     1  H    0.551443   0.408418  -0.033612  -0.025574  -0.024593  -0.006855
     2  C    0.408418   4.939028   0.314935   0.401335   0.413046  -0.029452
     3  C   -0.033612   0.314935   5.036952  -0.044303  -0.039638   0.387225
     4  H   -0.025574   0.401335  -0.044303   0.583396  -0.027328  -0.004880
     5  H   -0.024593   0.413046  -0.039638  -0.027328   0.532941   0.007735
     6  H   -0.006855  -0.029452   0.387225  -0.004880   0.007735   0.577642
     7  Si   0.007566  -0.020351   0.417478  -0.004983  -0.008327  -0.028766
     8  H   -0.006913  -0.027956   0.370971   0.008693  -0.004080  -0.026219
     9  O   -0.000025  -0.003167  -0.037054   0.004204  -0.000350  -0.000791
    10  O    0.000013  -0.004908  -0.031462   0.000349   0.007615   0.001307
    11  H   -0.000120   0.001803  -0.035489   0.000211   0.000409   0.001368
    12  H   -0.000081   0.000265  -0.002236   0.001898   0.000036   0.000062
    13  C    0.000009  -0.000075   0.001800   0.000097  -0.000062  -0.000124
    14  H   -0.000004   0.000226  -0.000399  -0.000003  -0.000165  -0.000001
    15  H    0.000000  -0.000040  -0.000036  -0.000002   0.000083   0.000007
    16  H    0.000001  -0.000143   0.000825  -0.000010   0.000012   0.000014
              7          8          9         10         11         12
     1  H    0.007566  -0.006913  -0.000025   0.000013  -0.000120  -0.000081
     2  C   -0.020351  -0.027956  -0.003167  -0.004908   0.001803   0.000265
     3  C    0.417478   0.370971  -0.037054  -0.031462  -0.035489  -0.002236
     4  H   -0.004983   0.008693   0.004204   0.000349   0.000211   0.001898
     5  H   -0.008327  -0.004080  -0.000350   0.007615   0.000409   0.000036
     6  H   -0.028766  -0.026219  -0.000791   0.001307   0.001368   0.000062
     7  Si  11.893370  -0.012793   0.470266   0.451535   0.390834  -0.027991
     8  H   -0.012793   0.574474   0.001700   0.001711   0.000750  -0.000034
     9  O    0.470266   0.001700   7.847268  -0.036557  -0.017308   0.299061
    10  O    0.451535   0.001711  -0.036557   7.843465  -0.026508  -0.001042
    11  H    0.390834   0.000750  -0.017308  -0.026508   0.734569   0.004449
    12  H   -0.027991  -0.000034   0.299061  -0.001042   0.004449   0.406538
    13  C   -0.050458   0.000081  -0.007877   0.262589   0.002565   0.000777
    14  H    0.007770  -0.000001   0.000115  -0.040900  -0.000235   0.000021
    15  H   -0.017507  -0.000021  -0.000474  -0.042812   0.010259  -0.000017
    16  H   -0.004581  -0.000016   0.007293  -0.044147  -0.001973   0.000319
             13         14         15         16
     1  H    0.000009  -0.000004   0.000000   0.000001
     2  C   -0.000075   0.000226  -0.000040  -0.000143
     3  C    0.001800  -0.000399  -0.000036   0.000825
     4  H    0.000097  -0.000003  -0.000002  -0.000010
     5  H   -0.000062  -0.000165   0.000083   0.000012
     6  H   -0.000124  -0.000001   0.000007   0.000014
     7  Si  -0.050458   0.007770  -0.017507  -0.004581
     8  H    0.000081  -0.000001  -0.000021  -0.000016
     9  O   -0.007877   0.000115  -0.000474   0.007293
    10  O    0.262589  -0.040900  -0.042812  -0.044147
    11  H    0.002565  -0.000235   0.010259  -0.001973
    12  H    0.000777   0.000021  -0.000017   0.000319
    13  C    4.768153   0.402268   0.418082   0.411693
    14  H    0.402268   0.567374  -0.030615  -0.033867
    15  H    0.418082  -0.030615   0.593229  -0.047401
    16  H    0.411693  -0.033867  -0.047401   0.593269
 Mulliken atomic charges:
              1
     1  H    0.130326
     2  C   -0.392965
     3  C   -0.305959
     4  H    0.106900
     5  H    0.142667
     6  H    0.121729
     7  Si   0.536937
     8  H    0.119649
     9  O   -0.526303
    10  O   -0.340248
    11  H   -0.065583
    12  H    0.317976
    13  C   -0.209520
    14  H    0.128415
    15  H    0.117265
    16  H    0.118712
 Sum of Mulliken atomic charges =   0.00000
 Mulliken charges with hydrogens summed into heavy atoms:
              1
     2  C   -0.013071
     3  C   -0.064580
     7  Si   0.471354
     9  O   -0.208327
    10  O   -0.340248
    13  C    0.154872
 Sum of Mulliken charges with hydrogens summed into heavy atoms =   0.00000
 Electronic spatial extent (au):  <R**2>=            867.7608
 Charge=              0.0000 electrons
 Dipole moment (field-independent basis, Debye):
    X=             -0.3831    Y=             -0.5646    Z=             -0.9346  Tot=              1.1572
 Quadrupole moment (field-independent basis, Debye-Ang):
   XX=            -41.2836   YY=            -49.1952   ZZ=            -42.8314
   XY=             -1.7801   XZ=             -0.3395   YZ=             -1.8738
 Traceless Quadrupole moment (field-independent basis, Debye-Ang):
   XX=              3.1531   YY=             -4.7585   ZZ=              1.6054
   XY=             -1.7801   XZ=             -0.3395   YZ=             -1.8738
 Octapole moment (field-independent basis, Debye-Ang**2):
  XXX=             14.1040  YYY=             -6.1634  ZZZ=            -10.9243  XYY=             -1.0558
  XXY=             -2.4208  XXZ=             -1.0398  XZZ=              0.8751  YZZ=              5.0456
  YYZ=             -3.6377  XYZ=              1.6496
 Hexadecapole moment (field-independent basis, Debye-Ang**3):
 XXXX=           -707.0961 YYYY=           -291.0918 ZZZZ=           -165.9898 XXXY=            -11.8295
 XXXZ=             -6.5004 YYYX=            -12.1182 YYYZ=             -7.4548 ZZZX=             -3.5040
 ZZZY=            -20.0753 XXYY=           -162.8825 XXZZ=           -151.2448 YYZZ=            -65.4047
 XXYZ=             -0.8655 YYXZ=             -1.8819 ZZXY=             -4.1375
 N-N= 3.295401953101D+02 E-N=-1.983072791499D+03  KE= 5.582418754718D+02
 1\1\GINC-TARSUS4\SP\RPBE1PBE\def2TZVP\C3H10O2Si1\RENATO\08-Aug-2018\0\
 \#SP PBE1PBE/Def2TZVP geom=connectivity\\Structure: 74\\0,1\H,0,0.,0.,
 0.\C,0,1.093,0.,0.\C,0,1.655,1.421,0.\H,0,1.41,-0.56,-0.885\H,0,1.424,
 -0.557,0.88\H,0,1.308,1.969,-0.883\Si,0,3.513,1.515,0.035\H,0,1.282,1.
 975,0.868\O,0,4.272,0.792,-1.237\O,0,3.968,0.824,1.454\H,0,4.029,2.906
 ,-0.04\H,0,4.055,-0.124,-1.42\C,0,5.301,0.766,1.905\H,0,5.308,0.322,2.
 902\H,0,5.747,1.766,1.967\H,0,5.921,0.153,1.244\\Version=EM64L-G09RevC
 .01\State=1-A\HF=-560.0611396\RMSD=6.726e-09\Dipole=-0.1689995,-0.4143
 755,0.0836235\Quadrupole=0.7876286,0.3940867,-1.1817153,-1.2559536,2.6
 444412,1.9539264\PG=C01 [X(C3H10O2Si1)]\\@


 DON'T WORRY CHARLIE BROWN...WE LEARN MORE FROM LOSING 
 THAN WE DO FROM WINNING.
 THEN THAT MAKES ME THE SMARTEST PERSON IN THE WORLD...
 CHARLES SCHULZ 'PEANUTS'
 Job cpu time:  0 days  0 hours  7 minutes 57.0 seconds.
 File lengths (MBytes):  RWF=     40 Int=      0 D2E=      0 Chk=      3 Scr=      1
 Normal termination of Gaussian 09 at Wed Aug  8 18:49:14 2018.
