 Entering Gaussian System, Link 0=g09
 Initial command:
 /usr/local/gaussian09/g09/l1.exe /scratch/renato/Gau-9957.inp -scrdir=/scratch/renato/
 Entering Link 1 = /usr/local/gaussian09/g09/l1.exe PID=      9959.
  
 Copyright (c) 1988,1990,1992,1993,1995,1998,2003,2009,2011,
            Gaussian, Inc.  All Rights Reserved.
  
 This is part of the Gaussian(R) 09 program.  It is based on
 the Gaussian(R) 03 system (copyright 2003, Gaussian, Inc.),
 the Gaussian(R) 98 system (copyright 1998, Gaussian, Inc.),
 the Gaussian(R) 94 system (copyright 1995, Gaussian, Inc.),
 the Gaussian 92(TM) system (copyright 1992, Gaussian, Inc.),
 the Gaussian 90(TM) system (copyright 1990, Gaussian, Inc.),
 the Gaussian 88(TM) system (copyright 1988, Gaussian, Inc.),
 the Gaussian 86(TM) system (copyright 1986, Carnegie Mellon
 University), and the Gaussian 82(TM) system (copyright 1983,
 Carnegie Mellon University). Gaussian is a federally registered
 trademark of Gaussian, Inc.
  
 This software contains proprietary and confidential information,
 including trade secrets, belonging to Gaussian, Inc.
  
 This software is provided under written license and may be
 used, copied, transmitted, or stored only in accord with that
 written license.
  
 The following legend is applicable only to US Government
 contracts under FAR:
  
                    RESTRICTED RIGHTS LEGEND
  
 Use, reproduction and disclosure by the US Government is
 subject to restrictions as set forth in subparagraphs (a)
 and (c) of the Commercial Computer Software - Restricted
 Rights clause in FAR 52.227-19.
  
 Gaussian, Inc.
 340 Quinnipiac St., Bldg. 40, Wallingford CT 06492
  
  
 ---------------------------------------------------------------
 Warning -- This program may not be used in any manner that
 competes with the business of Gaussian, Inc. or will provide
 assistance to any competitor of Gaussian, Inc.  The licensee
 of this program is prohibited from giving any competitor of
 Gaussian, Inc. access to this program.  By using this program,
 the user acknowledges that Gaussian, Inc. is engaged in the
 business of creating and licensing software in the field of
 computational chemistry and represents and warrants to the
 licensee that it is not a competitor of Gaussian, Inc. and that
 it will not use this program in any manner prohibited above.
 ---------------------------------------------------------------
  

 Cite this work as:
 Gaussian 09, Revision C.01,
 M. J. Frisch, G. W. Trucks, H. B. Schlegel, G. E. Scuseria, 
 M. A. Robb, J. R. Cheeseman, G. Scalmani, V. Barone, B. Mennucci, 
 G. A. Petersson, H. Nakatsuji, M. Caricato, X. Li, H. P. Hratchian, 
 A. F. Izmaylov, J. Bloino, G. Zheng, J. L. Sonnenberg, M. Hada, 
 M. Ehara, K. Toyota, R. Fukuda, J. Hasegawa, M. Ishida, T. Nakajima, 
 Y. Honda, O. Kitao, H. Nakai, T. Vreven, J. A. Montgomery, Jr., 
 J. E. Peralta, F. Ogliaro, M. Bearpark, J. J. Heyd, E. Brothers, 
 K. N. Kudin, V. N. Staroverov, T. Keith, R. Kobayashi, J. Normand, 
 K. Raghavachari, A. Rendell, J. C. Burant, S. S. Iyengar, J. Tomasi, 
 M. Cossi, N. Rega, J. M. Millam, M. Klene, J. E. Knox, J. B. Cross, 
 V. Bakken, C. Adamo, J. Jaramillo, R. Gomperts, R. E. Stratmann, 
 O. Yazyev, A. J. Austin, R. Cammi, C. Pomelli, J. W. Ochterski, 
 R. L. Martin, K. Morokuma, V. G. Zakrzewski, G. A. Voth, 
 P. Salvador, J. J. Dannenberg, S. Dapprich, A. D. Daniels, 
 O. Farkas, J. B. Foresman, J. V. Ortiz, J. Cioslowski, 
 and D. J. Fox, Gaussian, Inc., Wallingford CT, 2010.
 
 ******************************************
 Gaussian 09:  EM64L-G09RevC.01 23-Sep-2011
                 8-Aug-2018 
 ******************************************
 %nproc=2
 Will use up to    2 processors via shared memory.
 %mem=256MB
 %RWF=a13.rwf
 %chk=a1373
 %NoSave
 --------------------------------------
 #SP PBE1PBE/Def2TZVP geom=connectivity
 --------------------------------------
 1/38=1,57=2/1;
 2/12=2,17=6,18=5,40=1/2;
 3/5=44,7=101,11=2,16=1,25=1,30=1,74=-13/1,2,3;
 4//1;
 5/5=2,38=5/2;
 6/7=2,8=2,9=2,10=2,28=1/1;
 99/5=1,9=1/99;
 -------------
 Structure: 73
 -------------
 Charge =  0 Multiplicity = 1
 Symbolic Z-Matrix:
 H                     0.        0.        0. 
 C                     1.093     0.        0. 
 C                     1.655     1.421     0. 
 H                     1.41     -0.56     -0.885 
 H                     1.424    -0.557     0.88 
 H                     1.308     1.969    -0.883 
 Si                    3.513     1.515     0.035 
 H                     1.282     1.975     0.868 
 O                     4.263     0.789    -1.241 
 O                     3.968     0.824     1.454 
 H                     4.029     2.906    -0.04 
 H                     4.043    -0.126    -1.422 
 C                     5.301     0.766     1.905 
 H                     5.308     0.322     2.902 
 H                     5.747     1.766     1.967 
 H                     5.921     0.153     1.244 
 
                          Input orientation:                          
 ---------------------------------------------------------------------
 Center     Atomic      Atomic             Coordinates (Angstroms)
 Number     Number       Type             X           Y           Z
 ---------------------------------------------------------------------
      1          1           0        0.000000    0.000000    0.000000
      2          6           0        1.093000    0.000000    0.000000
      3          6           0        1.655000    1.421000    0.000000
      4          1           0        1.410000   -0.560000   -0.885000
      5          1           0        1.424000   -0.557000    0.880000
      6          1           0        1.308000    1.969000   -0.883000
      7         14           0        3.513000    1.515000    0.035000
      8          1           0        1.282000    1.975000    0.868000
      9          8           0        4.263000    0.789000   -1.241000
     10          8           0        3.968000    0.824000    1.454000
     11          1           0        4.029000    2.906000   -0.040000
     12          1           0        4.043000   -0.126000   -1.422000
     13          6           0        5.301000    0.766000    1.905000
     14          1           0        5.308000    0.322000    2.902000
     15          1           0        5.747000    1.766000    1.967000
     16          1           0        5.921000    0.153000    1.244000
 ---------------------------------------------------------------------
                    Distance matrix (angstroms):
                    1          2          3          4          5
     1  H    0.000000
     2  C    1.093000   0.000000
     3  C    2.181345   1.528098   0.000000
     4  H    1.756395   1.094218   2.183486   0.000000
     5  H    1.764207   1.092799   2.177210   1.765058   0.000000
     6  H    2.523393   2.168611   1.095629   2.531057   3.082580
     7  Si   3.825914   2.855320   1.860706   3.094291   3.061230
     8  H    2.509497   2.165588   1.095203   3.084740   2.536007
     9  O    4.509520   3.494496   2.956547   3.175869   3.790815
    10  O    4.305591   3.325465   2.796515   3.732257   2.951029
    11  H    4.967824   4.131166   2.800482   4.425646   4.429988
    12  H    4.287634   3.277264   3.180855   2.722024   3.513421
    13  C    5.684750   4.682205   4.165497   4.968124   4.222805
    14  H    6.058065   5.127525   4.793101   5.505788   4.466160
    15  H    6.325809   5.352342   4.553304   5.688036   5.026552
    16  H    6.052205   4.988039   4.621051   5.038862   4.567232
                    6          7          8          9         10
     6  H    0.000000
     7  Si   2.431227   0.000000
     8  H    1.751203   2.425459   0.000000
     9  O    3.201966   1.648561   3.839380   0.000000
    10  O    3.721316   1.642579   2.980401   2.711323   0.000000
    11  H    2.998743   1.485517   3.039282   2.445168   2.563295
    12  H    3.487086   2.257572   4.157093   0.958325   3.029769
    13  C    5.016393   2.693482   4.323125   3.312897   1.408423
    14  H    5.747942   3.586776   4.803982   4.298205   2.035757
    15  H    5.279056   2.964183   4.603011   3.667158   2.077348
    16  H    5.394604   3.019137   4.998138   3.054290   2.075705
                   11         12         13         14         15
    11  H    0.000000
    12  H    3.332138   0.000000
    13  C    3.159210   3.667037   0.000000
    14  H    4.119255   4.527461   1.091418   0.000000
    15  H    2.877355   4.238939   1.096704   1.775410   0.000000
    16  H    3.578733   3.272962   1.094116   1.775752   1.776168
                   16
    16  H    0.000000
 Stoichiometry    C3H10O2Si
 Framework group  C1[X(C3H10O2Si)]
 Deg. of freedom    42
 Full point group                 C1      NOp   1
 Largest Abelian subgroup         C1      NOp   1
 Largest concise Abelian subgroup C1      NOp   1
                         Standard orientation:                         
 ---------------------------------------------------------------------
 Center     Atomic      Atomic             Coordinates (Angstroms)
 Number     Number       Type             X           Y           Z
 ---------------------------------------------------------------------
      1          1           0       -3.247708   -1.170354   -0.498053
      2          6           0       -2.248397   -0.756266   -0.654760
      3          6           0       -1.633910   -0.260636    0.653614
      4          1           0       -2.351207    0.052296   -1.384810
      5          1           0       -1.634251   -1.537042   -1.110199
      6          1           0       -2.264519    0.514999    1.102084
      7         14           0        0.085445    0.430344    0.484533
      8          1           0       -1.589506   -1.076242    1.383191
      9          8           0        0.210816    1.723317   -0.530483
     10          8           0        1.018442   -0.817271   -0.036082
     11          1           0        0.625836    0.970364    1.758549
     12          1           0       -0.127331    1.621517   -1.421370
     13          6           0        2.412946   -0.731418   -0.213957
     14          1           0        2.785533   -1.718208   -0.494349
     15          1           0        2.916281   -0.419532    0.709157
     16          1           0        2.672749   -0.021063   -1.004520
 ---------------------------------------------------------------------
 Rotational constants (GHZ):      4.0517971      1.8998012      1.5792062
 Standard basis: def2TZVP (5D, 7F)
 There are   252 symmetry adapted basis functions of A   symmetry.
 Integral buffers will be    131072 words long.
 Raffenetti 2 integral format.
 Two-electron integral symmetry is turned on.
   252 basis functions,   404 primitive gaussians,   282 cartesian basis functions
    29 alpha electrons       29 beta electrons
       nuclear repulsion energy       329.5443407415 Hartrees.
 NAtoms=   16 NActive=   16 NUniq=   16 SFac= 1.00D+00 NAtFMM=   60 NAOKFM=F Big=F
 One-electron integrals computed using PRISM.
   1 Symmetry operations used in ECPInt.
 ECPInt:  NShTT=    5886 NPrTT=   17754 LenC2=    5780 LenP2D=   13916.
 LDataN:  DoStor=T MaxTD1= 6 Len=  172
 NBasis=   252 RedAO= T  NBF=   252
 NBsUse=   252 1.00D-06 NBFU=   252
 Harris functional with IExCor= 1009 diagonalized for initial guess.
 ExpMin= 7.01D-02 ExpMax= 4.48D+04 ExpMxC= 1.53D+03 IAcc=2 IRadAn=         4 AccDes= 0.00D+00
 HarFok:  IExCor= 1009 AccDes= 0.00D+00 IRadAn=         4 IDoV= 1
 ScaDFX=  1.000000  1.000000  1.000000  1.000000
 FoFCou: FMM=F IPFlag=           0 FMFlag=      100000 FMFlg1=           0
         NFxFlg=           0 DoJE=T BraDBF=F KetDBF=T FulRan=T
         Omega=  0.000000  0.000000  1.000000  0.000000  0.000000 ICntrl=     500 IOpCl=  0
         NMat0=    1 NMatS0=    1 NMatT0=    0 NMatD0=    1 NMtDS0=    0 NMtDT0=    0
         I1Cent=           4 NGrid=           0.
 Petite list used in FoFCou.
 Initial guess orbital symmetries:
       Occupied  (A) (A) (A) (A) (A) (A) (A) (A) (A) (A) (A) (A)
                 (A) (A) (A) (A) (A) (A) (A) (A) (A) (A) (A) (A)
                 (A) (A) (A) (A) (A)
       Virtual   (A) (A) (A) (A) (A) (A) (A) (A) (A) (A) (A) (A)
                 (A) (A) (A) (A) (A) (A) (A) (A) (A) (A) (A) (A)
                 (A) (A) (A) (A) (A) (A) (A) (A) (A) (A) (A) (A)
                 (A) (A) (A) (A) (A) (A) (A) (A) (A) (A) (A) (A)
                 (A) (A) (A) (A) (A) (A) (A) (A) (A) (A) (A) (A)
                 (A) (A) (A) (A) (A) (A) (A) (A) (A) (A) (A) (A)
                 (A) (A) (A) (A) (A) (A) (A) (A) (A) (A) (A) (A)
                 (A) (A) (A) (A) (A) (A) (A) (A) (A) (A) (A) (A)
                 (A) (A) (A) (A) (A) (A) (A) (A) (A) (A) (A) (A)
                 (A) (A) (A) (A) (A) (A) (A) (A) (A) (A) (A) (A)
                 (A) (A) (A) (A) (A) (A) (A) (A) (A) (A) (A) (A)
                 (A) (A) (A) (A) (A) (A) (A) (A) (A) (A) (A) (A)
                 (A) (A) (A) (A) (A) (A) (A) (A) (A) (A) (A) (A)
                 (A) (A) (A) (A) (A) (A) (A) (A) (A) (A) (A) (A)
                 (A) (A) (A) (A) (A) (A) (A) (A) (A) (A) (A) (A)
                 (A) (A) (A) (A) (A) (A) (A) (A) (A) (A) (A) (A)
                 (A) (A) (A) (A) (A) (A) (A) (A) (A) (A) (A) (A)
                 (A) (A) (A) (A) (A) (A) (A) (A) (A) (A) (A) (A)
                 (A) (A) (A) (A) (A) (A) (A)
 The electronic state of the initial guess is 1-A.
 Requested convergence on RMS density matrix=1.00D-08 within 128 cycles.
 Requested convergence on MAX density matrix=1.00D-06.
 Requested convergence on             energy=1.00D-06.
 No special actions if energy rises.
 Integral accuracy reduced to 1.0D-05 until final iterations.
 Initial convergence to 1.0D-05 achieved.  Increase integral accuracy.
 SCF Done:  E(RPBE1PBE) =  -560.061194082     A.U. after   12 cycles
             Convg  =    0.6779D-08             -V/T =  2.0033

 **********************************************************************

            Population analysis using the SCF density.

 **********************************************************************

 Orbital symmetries:
       Occupied  (A) (A) (A) (A) (A) (A) (A) (A) (A) (A) (A) (A)
                 (A) (A) (A) (A) (A) (A) (A) (A) (A) (A) (A) (A)
                 (A) (A) (A) (A) (A)
       Virtual   (A) (A) (A) (A) (A) (A) (A) (A) (A) (A) (A) (A)
                 (A) (A) (A) (A) (A) (A) (A) (A) (A) (A) (A) (A)
                 (A) (A) (A) (A) (A) (A) (A) (A) (A) (A) (A) (A)
                 (A) (A) (A) (A) (A) (A) (A) (A) (A) (A) (A) (A)
                 (A) (A) (A) (A) (A) (A) (A) (A) (A) (A) (A) (A)
                 (A) (A) (A) (A) (A) (A) (A) (A) (A) (A) (A) (A)
                 (A) (A) (A) (A) (A) (A) (A) (A) (A) (A) (A) (A)
                 (A) (A) (A) (A) (A) (A) (A) (A) (A) (A) (A) (A)
                 (A) (A) (A) (A) (A) (A) (A) (A) (A) (A) (A) (A)
                 (A) (A) (A) (A) (A) (A) (A) (A) (A) (A) (A) (A)
                 (A) (A) (A) (A) (A) (A) (A) (A) (A) (A) (A) (A)
                 (A) (A) (A) (A) (A) (A) (A) (A) (A) (A) (A) (A)
                 (A) (A) (A) (A) (A) (A) (A) (A) (A) (A) (A) (A)
                 (A) (A) (A) (A) (A) (A) (A) (A) (A) (A) (A) (A)
                 (A) (A) (A) (A) (A) (A) (A) (A) (A) (A) (A) (A)
                 (A) (A) (A) (A) (A) (A) (A) (A) (A) (A) (A) (A)
                 (A) (A) (A) (A) (A) (A) (A) (A) (A) (A) (A) (A)
                 (A) (A) (A) (A) (A) (A) (A) (A) (A) (A) (A) (A)
                 (A) (A) (A) (A) (A) (A) (A)
 The electronic state is 1-A.
 Alpha  occ. eigenvalues --  -66.25362 -19.20273 -19.19921 -10.26385 -10.21769
 Alpha  occ. eigenvalues --  -10.20990  -5.33024  -3.66553  -3.66438  -3.66294
 Alpha  occ. eigenvalues --   -1.04400  -1.02249  -0.78280  -0.70459  -0.64111
 Alpha  occ. eigenvalues --   -0.56710  -0.51119  -0.46788  -0.46583  -0.46020
 Alpha  occ. eigenvalues --   -0.43569  -0.40924  -0.39128  -0.37214  -0.36604
 Alpha  occ. eigenvalues --   -0.35693  -0.31819  -0.30459  -0.29676
 Alpha virt. eigenvalues --    0.02254   0.05576   0.06049   0.08004   0.08966
 Alpha virt. eigenvalues --    0.10196   0.10767   0.11494   0.12360   0.13514
 Alpha virt. eigenvalues --    0.14183   0.15259   0.15894   0.16421   0.19257
 Alpha virt. eigenvalues --    0.21316   0.22018   0.23566   0.24498   0.24947
 Alpha virt. eigenvalues --    0.26647   0.28280   0.29371   0.29493   0.31282
 Alpha virt. eigenvalues --    0.33063   0.36721   0.39434   0.40095   0.40689
 Alpha virt. eigenvalues --    0.41939   0.42495   0.44233   0.45155   0.45613
 Alpha virt. eigenvalues --    0.46303   0.47480   0.47875   0.50048   0.50576
 Alpha virt. eigenvalues --    0.51157   0.53391   0.55379   0.56761   0.59827
 Alpha virt. eigenvalues --    0.60864   0.62837   0.65309   0.66100   0.68143
 Alpha virt. eigenvalues --    0.73918   0.74629   0.75325   0.77861   0.81042
 Alpha virt. eigenvalues --    0.82979   0.84025   0.86332   0.88130   0.91937
 Alpha virt. eigenvalues --    0.93104   0.95593   0.96866   0.99494   1.00971
 Alpha virt. eigenvalues --    1.04197   1.07059   1.08327   1.09028   1.11758
 Alpha virt. eigenvalues --    1.12136   1.12525   1.15521   1.18933   1.21236
 Alpha virt. eigenvalues --    1.25188   1.28774   1.32232   1.36658   1.41200
 Alpha virt. eigenvalues --    1.41969   1.46480   1.47755   1.49758   1.52558
 Alpha virt. eigenvalues --    1.53172   1.54484   1.55088   1.56292   1.57642
 Alpha virt. eigenvalues --    1.59523   1.62508   1.63642   1.63731   1.65925
 Alpha virt. eigenvalues --    1.67853   1.72031   1.75433   1.77335   1.79600
 Alpha virt. eigenvalues --    1.80646   1.83154   1.86453   1.89055   1.91811
 Alpha virt. eigenvalues --    1.94922   1.95795   1.99679   2.01785   2.03876
 Alpha virt. eigenvalues --    2.05415   2.08363   2.10450   2.12185   2.15129
 Alpha virt. eigenvalues --    2.17131   2.18611   2.26707   2.29222   2.30076
 Alpha virt. eigenvalues --    2.32833   2.33154   2.34230   2.35343   2.35825
 Alpha virt. eigenvalues --    2.36259   2.40519   2.44146   2.47442   2.49160
 Alpha virt. eigenvalues --    2.51001   2.51879   2.54764   2.56173   2.58353
 Alpha virt. eigenvalues --    2.59548   2.61350   2.65296   2.66874   2.71061
 Alpha virt. eigenvalues --    2.73000   2.77170   2.80586   2.83340   2.84771
 Alpha virt. eigenvalues --    2.86772   2.93166   2.94661   2.99956   3.02160
 Alpha virt. eigenvalues --    3.06994   3.09055   3.10639   3.11466   3.15167
 Alpha virt. eigenvalues --    3.20781   3.22362   3.23198   3.27428   3.30024
 Alpha virt. eigenvalues --    3.32075   3.32808   3.37135   3.40296   3.44270
 Alpha virt. eigenvalues --    3.44759   3.46120   3.47526   3.53325   3.54112
 Alpha virt. eigenvalues --    3.58512   3.61518   3.62557   3.65144   3.76775
 Alpha virt. eigenvalues --    3.81180   3.87844   3.92663   3.95829   4.03026
 Alpha virt. eigenvalues --    4.19237   4.24093   4.25268   4.34191   4.37032
 Alpha virt. eigenvalues --    4.41659   4.46882   4.53400   4.57171   4.78622
 Alpha virt. eigenvalues --    5.15639   5.16732   5.18000   5.18290   5.28407
 Alpha virt. eigenvalues --    5.29749   5.38606   5.41735   5.45515   5.50056
 Alpha virt. eigenvalues --    5.79938   5.86736   6.03725   6.22932   6.41439
 Alpha virt. eigenvalues --    6.42150   6.53556   6.58762   6.60346   6.66855
 Alpha virt. eigenvalues --    6.68034   6.78880   6.81937   6.97202   7.06223
 Alpha virt. eigenvalues --    7.15502   7.22344  11.92230  22.37057  22.40908
 Alpha virt. eigenvalues --   22.45266  43.61922  43.94439
          Condensed to atoms (all electrons):
              1          2          3          4          5          6
     1  H    0.551395   0.408387  -0.033587  -0.025531  -0.024596  -0.006858
     2  C    0.408387   4.939271   0.314820   0.401268   0.413019  -0.029401
     3  C   -0.033587   0.314820   5.036413  -0.044348  -0.039638   0.387228
     4  H   -0.025531   0.401268  -0.044348   0.583680  -0.027368  -0.004891
     5  H   -0.024596   0.413019  -0.039638  -0.027368   0.533071   0.007737
     6  H   -0.006858  -0.029401   0.387228  -0.004891   0.007737   0.577744
     7  Si   0.007593  -0.020271   0.418240  -0.005088  -0.008330  -0.028763
     8  H   -0.006907  -0.027966   0.370824   0.008724  -0.004082  -0.026256
     9  O   -0.000021  -0.003184  -0.037201   0.004280  -0.000358  -0.000820
    10  O    0.000013  -0.004923  -0.031462   0.000362   0.007609   0.001306
    11  H   -0.000119   0.001798  -0.035419   0.000211   0.000409   0.001365
    12  H   -0.000082   0.000281  -0.002217   0.001928   0.000034   0.000063
    13  C    0.000010  -0.000077   0.001827   0.000097  -0.000062  -0.000125
    14  H   -0.000004   0.000226  -0.000402  -0.000003  -0.000165  -0.000001
    15  H    0.000000  -0.000040  -0.000035  -0.000002   0.000083   0.000006
    16  H    0.000001  -0.000140   0.000825  -0.000011   0.000012   0.000014
              7          8          9         10         11         12
     1  H    0.007593  -0.006907  -0.000021   0.000013  -0.000119  -0.000082
     2  C   -0.020271  -0.027966  -0.003184  -0.004923   0.001798   0.000281
     3  C    0.418240   0.370824  -0.037201  -0.031462  -0.035419  -0.002217
     4  H   -0.005088   0.008724   0.004280   0.000362   0.000211   0.001928
     5  H   -0.008330  -0.004082  -0.000358   0.007609   0.000409   0.000034
     6  H   -0.028763  -0.026256  -0.000820   0.001306   0.001365   0.000063
     7  Si  11.893095  -0.012988   0.469708   0.451301   0.390895  -0.027994
     8  H   -0.012988   0.575060   0.001734   0.001733   0.000765  -0.000034
     9  O    0.469708   0.001734   7.847431  -0.036352  -0.017113   0.299357
    10  O    0.451301   0.001733  -0.036352   7.843366  -0.026481  -0.001049
    11  H    0.390895   0.000765  -0.017113  -0.026481   0.733931   0.004396
    12  H   -0.027994  -0.000034   0.299357  -0.001049   0.004396   0.406244
    13  C   -0.050370   0.000081  -0.007733   0.262474   0.002548   0.000765
    14  H    0.007765  -0.000001   0.000111  -0.040925  -0.000234   0.000020
    15  H   -0.017542  -0.000021  -0.000475  -0.042785   0.010239  -0.000018
    16  H   -0.004571  -0.000016   0.007206  -0.044119  -0.001975   0.000318
             13         14         15         16
     1  H    0.000010  -0.000004   0.000000   0.000001
     2  C   -0.000077   0.000226  -0.000040  -0.000140
     3  C    0.001827  -0.000402  -0.000035   0.000825
     4  H    0.000097  -0.000003  -0.000002  -0.000011
     5  H   -0.000062  -0.000165   0.000083   0.000012
     6  H   -0.000125  -0.000001   0.000006   0.000014
     7  Si  -0.050370   0.007765  -0.017542  -0.004571
     8  H    0.000081  -0.000001  -0.000021  -0.000016
     9  O   -0.007733   0.000111  -0.000475   0.007206
    10  O    0.262474  -0.040925  -0.042785  -0.044119
    11  H    0.002548  -0.000234   0.010239  -0.001975
    12  H    0.000765   0.000020  -0.000018   0.000318
    13  C    4.768254   0.402301   0.418081   0.411753
    14  H    0.402301   0.567242  -0.030578  -0.033831
    15  H    0.418081  -0.030578   0.593218  -0.047448
    16  H    0.411753  -0.033831  -0.047448   0.593095
 Mulliken atomic charges:
              1
     1  H    0.130305
     2  C   -0.393067
     3  C   -0.305868
     4  H    0.106694
     5  H    0.142624
     6  H    0.121652
     7  Si   0.537321
     8  H    0.119350
     9  O   -0.526572
    10  O   -0.340068
    11  H   -0.065215
    12  H    0.317986
    13  C   -0.209824
    14  H    0.128479
    15  H    0.117317
    16  H    0.118887
 Sum of Mulliken atomic charges =   0.00000
 Mulliken charges with hydrogens summed into heavy atoms:
              1
     2  C   -0.013444
     3  C   -0.064866
     7  Si   0.472106
     9  O   -0.208586
    10  O   -0.340068
    13  C    0.154858
 Sum of Mulliken charges with hydrogens summed into heavy atoms =   0.00000
 Electronic spatial extent (au):  <R**2>=            867.6481
 Charge=              0.0000 electrons
 Dipole moment (field-independent basis, Debye):
    X=             -0.3651    Y=             -0.5681    Z=             -0.9267  Tot=              1.1466
 Quadrupole moment (field-independent basis, Debye-Ang):
   XX=            -41.2653   YY=            -49.2115   ZZ=            -42.8349
   XY=             -1.7571   XZ=             -0.3184   YZ=             -1.8541
 Traceless Quadrupole moment (field-independent basis, Debye-Ang):
   XX=              3.1719   YY=             -4.7743   ZZ=              1.6024
   XY=             -1.7571   XZ=             -0.3184   YZ=             -1.8541
 Octapole moment (field-independent basis, Debye-Ang**2):
  XXX=             14.1606  YYY=             -6.1980  ZZZ=            -10.8909  XYY=             -1.0211
  XXY=             -2.3640  XXZ=             -1.0817  XZZ=              0.8367  YZZ=              5.0386
  YYZ=             -3.6024  XYZ=              1.6789
 Hexadecapole moment (field-independent basis, Debye-Ang**3):
 XXXX=           -706.8001 YYYY=           -291.1374 ZZZZ=           -166.1019 XXXY=            -11.9105
 XXXZ=             -6.4991 YYYX=            -12.0994 YYYZ=             -7.3783 ZZZX=             -3.3772
 ZZZY=            -19.9958 XXYY=           -162.7952 XXZZ=           -151.2214 YYZZ=            -65.4523
 XXYZ=             -0.8721 YYXZ=             -1.8195 ZZXY=             -4.2661
 N-N= 3.295443407415D+02 E-N=-1.983080000446D+03  KE= 5.582422798287D+02
 1\1\GINC-TARSUS4\SP\RPBE1PBE\def2TZVP\C3H10O2Si1\RENATO\08-Aug-2018\0\
 \#SP PBE1PBE/Def2TZVP geom=connectivity\\Structure: 73\\0,1\H,0,0.,0.,
 0.\C,0,1.093,0.,0.\C,0,1.655,1.421,0.\H,0,1.41,-0.56,-0.885\H,0,1.424,
 -0.557,0.88\H,0,1.308,1.969,-0.883\Si,0,3.513,1.515,0.035\H,0,1.282,1.
 975,0.868\O,0,4.263,0.789,-1.241\O,0,3.968,0.824,1.454\H,0,4.029,2.906
 ,-0.04\H,0,4.043,-0.126,-1.422\C,0,5.301,0.766,1.905\H,0,5.308,0.322,2
 .902\H,0,5.747,1.766,1.967\H,0,5.921,0.153,1.244\\Version=EM64L-G09Rev
 C.01\State=1-A\HF=-560.0611941\RMSD=6.779e-09\Dipole=-0.1637445,-0.411
 0095,0.0881655\Quadrupole=0.7931281,0.4037865,-1.1969146,-1.2347507,2.
 6513629,1.9457961\PG=C01 [X(C3H10O2Si1)]\\@


 A politician is a person who can make waves and then
 make you think he's the only one who can save the ship.
 -- Ivern Ball
 Job cpu time:  0 days  0 hours  8 minutes 29.6 seconds.
 File lengths (MBytes):  RWF=     40 Int=      0 D2E=      0 Chk=      3 Scr=      1
 Normal termination of Gaussian 09 at Wed Aug  8 18:45:15 2018.
