 Entering Gaussian System, Link 0=g09
 Initial command:
 /usr/local/gaussian09/g09/l1.exe /scratch/renato/Gau-10968.inp -scrdir=/scratch/renato/
 Entering Link 1 = /usr/local/gaussian09/g09/l1.exe PID=     10970.
  
 Copyright (c) 1988,1990,1992,1993,1995,1998,2003,2009,2011,
            Gaussian, Inc.  All Rights Reserved.
  
 This is part of the Gaussian(R) 09 program.  It is based on
 the Gaussian(R) 03 system (copyright 2003, Gaussian, Inc.),
 the Gaussian(R) 98 system (copyright 1998, Gaussian, Inc.),
 the Gaussian(R) 94 system (copyright 1995, Gaussian, Inc.),
 the Gaussian 92(TM) system (copyright 1992, Gaussian, Inc.),
 the Gaussian 90(TM) system (copyright 1990, Gaussian, Inc.),
 the Gaussian 88(TM) system (copyright 1988, Gaussian, Inc.),
 the Gaussian 86(TM) system (copyright 1986, Carnegie Mellon
 University), and the Gaussian 82(TM) system (copyright 1983,
 Carnegie Mellon University). Gaussian is a federally registered
 trademark of Gaussian, Inc.
  
 This software contains proprietary and confidential information,
 including trade secrets, belonging to Gaussian, Inc.
  
 This software is provided under written license and may be
 used, copied, transmitted, or stored only in accord with that
 written license.
  
 The following legend is applicable only to US Government
 contracts under FAR:
  
                    RESTRICTED RIGHTS LEGEND
  
 Use, reproduction and disclosure by the US Government is
 subject to restrictions as set forth in subparagraphs (a)
 and (c) of the Commercial Computer Software - Restricted
 Rights clause in FAR 52.227-19.
  
 Gaussian, Inc.
 340 Quinnipiac St., Bldg. 40, Wallingford CT 06492
  
  
 ---------------------------------------------------------------
 Warning -- This program may not be used in any manner that
 competes with the business of Gaussian, Inc. or will provide
 assistance to any competitor of Gaussian, Inc.  The licensee
 of this program is prohibited from giving any competitor of
 Gaussian, Inc. access to this program.  By using this program,
 the user acknowledges that Gaussian, Inc. is engaged in the
 business of creating and licensing software in the field of
 computational chemistry and represents and warrants to the
 licensee that it is not a competitor of Gaussian, Inc. and that
 it will not use this program in any manner prohibited above.
 ---------------------------------------------------------------
  

 Cite this work as:
 Gaussian 09, Revision C.01,
 M. J. Frisch, G. W. Trucks, H. B. Schlegel, G. E. Scuseria, 
 M. A. Robb, J. R. Cheeseman, G. Scalmani, V. Barone, B. Mennucci, 
 G. A. Petersson, H. Nakatsuji, M. Caricato, X. Li, H. P. Hratchian, 
 A. F. Izmaylov, J. Bloino, G. Zheng, J. L. Sonnenberg, M. Hada, 
 M. Ehara, K. Toyota, R. Fukuda, J. Hasegawa, M. Ishida, T. Nakajima, 
 Y. Honda, O. Kitao, H. Nakai, T. Vreven, J. A. Montgomery, Jr., 
 J. E. Peralta, F. Ogliaro, M. Bearpark, J. J. Heyd, E. Brothers, 
 K. N. Kudin, V. N. Staroverov, T. Keith, R. Kobayashi, J. Normand, 
 K. Raghavachari, A. Rendell, J. C. Burant, S. S. Iyengar, J. Tomasi, 
 M. Cossi, N. Rega, J. M. Millam, M. Klene, J. E. Knox, J. B. Cross, 
 V. Bakken, C. Adamo, J. Jaramillo, R. Gomperts, R. E. Stratmann, 
 O. Yazyev, A. J. Austin, R. Cammi, C. Pomelli, J. W. Ochterski, 
 R. L. Martin, K. Morokuma, V. G. Zakrzewski, G. A. Voth, 
 P. Salvador, J. J. Dannenberg, S. Dapprich, A. D. Daniels, 
 O. Farkas, J. B. Foresman, J. V. Ortiz, J. Cioslowski, 
 and D. J. Fox, Gaussian, Inc., Wallingford CT, 2010.
 
 ******************************************
 Gaussian 09:  EM64L-G09RevC.01 23-Sep-2011
                 8-Aug-2018 
 ******************************************
 %nproc=2
 Will use up to    2 processors via shared memory.
 %mem=256MB
 %RWF=a13.rwf
 %chk=a1389
 %NoSave
 --------------------------------------
 #SP PBE1PBE/Def2TZVP geom=connectivity
 --------------------------------------
 1/38=1,57=2/1;
 2/12=2,17=6,18=5,40=1/2;
 3/5=44,7=101,11=2,16=1,25=1,30=1,74=-13/1,2,3;
 4//1;
 5/5=2,38=5/2;
 6/7=2,8=2,9=2,10=2,28=1/1;
 99/5=1,9=1/99;
 -------------
 Structure: 89
 -------------
 Charge =  0 Multiplicity = 1
 Symbolic Z-Matrix:
 H                     0.        0.        0. 
 C                     1.093     0.        0. 
 C                     1.655     1.421     0. 
 H                     1.41     -0.56     -0.885 
 H                     1.424    -0.557     0.88 
 H                     1.308     1.969    -0.883 
 Si                    3.513     1.515     0.035 
 H                     1.282     1.975     0.868 
 O                     4.396     0.832    -1.178 
 O                     3.968     0.824     1.454 
 H                     4.029     2.906    -0.04 
 H                     4.235    -0.091    -1.377 
 C                     5.301     0.766     1.905 
 H                     5.308     0.322     2.902 
 H                     5.747     1.766     1.967 
 H                     5.921     0.153     1.244 
 
                          Input orientation:                          
 ---------------------------------------------------------------------
 Center     Atomic      Atomic             Coordinates (Angstroms)
 Number     Number       Type             X           Y           Z
 ---------------------------------------------------------------------
      1          1           0        0.000000    0.000000    0.000000
      2          6           0        1.093000    0.000000    0.000000
      3          6           0        1.655000    1.421000    0.000000
      4          1           0        1.410000   -0.560000   -0.885000
      5          1           0        1.424000   -0.557000    0.880000
      6          1           0        1.308000    1.969000   -0.883000
      7         14           0        3.513000    1.515000    0.035000
      8          1           0        1.282000    1.975000    0.868000
      9          8           0        4.396000    0.832000   -1.178000
     10          8           0        3.968000    0.824000    1.454000
     11          1           0        4.029000    2.906000   -0.040000
     12          1           0        4.235000   -0.091000   -1.377000
     13          6           0        5.301000    0.766000    1.905000
     14          1           0        5.308000    0.322000    2.902000
     15          1           0        5.747000    1.766000    1.967000
     16          1           0        5.921000    0.153000    1.244000
 ---------------------------------------------------------------------
                    Distance matrix (angstroms):
                    1          2          3          4          5
     1  H    0.000000
     2  C    1.093000   0.000000
     3  C    2.181345   1.528098   0.000000
     4  H    1.756395   1.094218   2.183486   0.000000
     5  H    1.764207   1.092799   2.177210   1.765058   0.000000
     6  H    2.523393   2.168611   1.095629   2.531057   3.082580
     7  Si   3.825914   2.855320   1.860706   3.094291   3.061230
     8  H    2.509497   2.165588   1.095203   3.084740   2.536007
     9  O    4.626524   3.604125   3.041001   3.307523   3.872657
    10  O    4.305591   3.325465   2.796515   3.732257   2.951029
    11  H    4.967824   4.131166   2.800482   4.425646   4.429988
    12  H    4.454171   3.431701   3.292214   2.905624   3.634959
    13  C    5.684750   4.682205   4.165497   4.968124   4.222805
    14  H    6.058065   5.127525   4.793101   5.505788   4.466160
    15  H    6.325809   5.352342   4.553304   5.688036   5.026552
    16  H    6.052205   4.988039   4.621051   5.038862   4.567232
                    6          7          8          9         10
     6  H    0.000000
     7  Si   2.431227   0.000000
     8  H    1.751203   2.425459   0.000000
     9  O    3.303867   1.648498   3.897379   0.000000
    10  O    3.721316   1.642579   2.980401   2.666584   0.000000
    11  H    2.998743   1.485517   3.039282   2.393994   2.563295
    12  H    3.613166   2.257048   4.246009   0.957837   2.987152
    13  C    5.016393   2.693482   4.323125   3.213763   1.408423
    14  H    5.747942   3.586776   4.803982   4.211679   2.035757
    15  H    5.279056   2.964183   4.603011   3.548039   2.077348
    16  H    5.394604   3.019137   4.998138   2.941556   2.075705
                   11         12         13         14         15
    11  H    0.000000
    12  H    3.288163   0.000000
    13  C    3.159210   3.555605   0.000000
    14  H    4.119255   4.430772   1.091418   0.000000
    15  H    2.877355   4.113019   1.096704   1.775410   0.000000
    16  H    3.578733   3.125984   1.094116   1.775752   1.776168
                   16
    16  H    0.000000
 Stoichiometry    C3H10O2Si
 Framework group  C1[X(C3H10O2Si)]
 Deg. of freedom    42
 Full point group                 C1      NOp   1
 Largest Abelian subgroup         C1      NOp   1
 Largest concise Abelian subgroup C1      NOp   1
                         Standard orientation:                         
 ---------------------------------------------------------------------
 Center     Atomic      Atomic             Coordinates (Angstroms)
 Number     Number       Type             X           Y           Z
 ---------------------------------------------------------------------
      1          1           0       -3.298009   -1.092692   -0.508170
      2          6           0       -2.287025   -0.707662   -0.664091
      3          6           0       -1.668767   -0.207286    0.640695
      4          1           0       -2.363319    0.091409   -1.407716
      5          1           0       -1.690595   -1.511612   -1.102435
      6          1           0       -2.281741    0.591846    1.072033
      7         14           0        0.069405    0.435335    0.473296
      8          1           0       -1.651039   -1.011868    1.383530
      9          8           0        0.385549    1.706549   -0.527512
     10          8           0        0.972668   -0.844685   -0.020394
     11          1           0        0.615009    0.981476    1.742472
     12          1           0        0.098331    1.634777   -1.438449
     13          6           0        2.370161   -0.798487   -0.189311
     14          1           0        2.718452   -1.799157   -0.451126
     15          1           0        2.875131   -0.485073    0.732393
     16          1           0        2.654167   -0.108107   -0.989190
 ---------------------------------------------------------------------
 Rotational constants (GHZ):      4.0664419      1.8948701      1.5722148
 Standard basis: def2TZVP (5D, 7F)
 There are   252 symmetry adapted basis functions of A   symmetry.
 Integral buffers will be    131072 words long.
 Raffenetti 2 integral format.
 Two-electron integral symmetry is turned on.
   252 basis functions,   404 primitive gaussians,   282 cartesian basis functions
    29 alpha electrons       29 beta electrons
       nuclear repulsion energy       329.4825386193 Hartrees.
 NAtoms=   16 NActive=   16 NUniq=   16 SFac= 1.00D+00 NAtFMM=   60 NAOKFM=F Big=F
 One-electron integrals computed using PRISM.
   1 Symmetry operations used in ECPInt.
 ECPInt:  NShTT=    5886 NPrTT=   17754 LenC2=    5777 LenP2D=   13913.
 LDataN:  DoStor=T MaxTD1= 6 Len=  172
 NBasis=   252 RedAO= T  NBF=   252
 NBsUse=   252 1.00D-06 NBFU=   252
 Harris functional with IExCor= 1009 diagonalized for initial guess.
 ExpMin= 7.01D-02 ExpMax= 4.48D+04 ExpMxC= 1.53D+03 IAcc=2 IRadAn=         4 AccDes= 0.00D+00
 HarFok:  IExCor= 1009 AccDes= 0.00D+00 IRadAn=         4 IDoV= 1
 ScaDFX=  1.000000  1.000000  1.000000  1.000000
 FoFCou: FMM=F IPFlag=           0 FMFlag=      100000 FMFlg1=           0
         NFxFlg=           0 DoJE=T BraDBF=F KetDBF=T FulRan=T
         Omega=  0.000000  0.000000  1.000000  0.000000  0.000000 ICntrl=     500 IOpCl=  0
         NMat0=    1 NMatS0=    1 NMatT0=    0 NMatD0=    1 NMtDS0=    0 NMtDT0=    0
         I1Cent=           4 NGrid=           0.
 Petite list used in FoFCou.
 Initial guess orbital symmetries:
       Occupied  (A) (A) (A) (A) (A) (A) (A) (A) (A) (A) (A) (A)
                 (A) (A) (A) (A) (A) (A) (A) (A) (A) (A) (A) (A)
                 (A) (A) (A) (A) (A)
       Virtual   (A) (A) (A) (A) (A) (A) (A) (A) (A) (A) (A) (A)
                 (A) (A) (A) (A) (A) (A) (A) (A) (A) (A) (A) (A)
                 (A) (A) (A) (A) (A) (A) (A) (A) (A) (A) (A) (A)
                 (A) (A) (A) (A) (A) (A) (A) (A) (A) (A) (A) (A)
                 (A) (A) (A) (A) (A) (A) (A) (A) (A) (A) (A) (A)
                 (A) (A) (A) (A) (A) (A) (A) (A) (A) (A) (A) (A)
                 (A) (A) (A) (A) (A) (A) (A) (A) (A) (A) (A) (A)
                 (A) (A) (A) (A) (A) (A) (A) (A) (A) (A) (A) (A)
                 (A) (A) (A) (A) (A) (A) (A) (A) (A) (A) (A) (A)
                 (A) (A) (A) (A) (A) (A) (A) (A) (A) (A) (A) (A)
                 (A) (A) (A) (A) (A) (A) (A) (A) (A) (A) (A) (A)
                 (A) (A) (A) (A) (A) (A) (A) (A) (A) (A) (A) (A)
                 (A) (A) (A) (A) (A) (A) (A) (A) (A) (A) (A) (A)
                 (A) (A) (A) (A) (A) (A) (A) (A) (A) (A) (A) (A)
                 (A) (A) (A) (A) (A) (A) (A) (A) (A) (A) (A) (A)
                 (A) (A) (A) (A) (A) (A) (A) (A) (A) (A) (A) (A)
                 (A) (A) (A) (A) (A) (A) (A) (A) (A) (A) (A) (A)
                 (A) (A) (A) (A) (A) (A) (A) (A) (A) (A) (A) (A)
                 (A) (A) (A) (A) (A) (A) (A)
 The electronic state of the initial guess is 1-A.
 Requested convergence on RMS density matrix=1.00D-08 within 128 cycles.
 Requested convergence on MAX density matrix=1.00D-06.
 Requested convergence on             energy=1.00D-06.
 No special actions if energy rises.
 Integral accuracy reduced to 1.0D-05 until final iterations.
 Initial convergence to 1.0D-05 achieved.  Increase integral accuracy.
 SCF Done:  E(RPBE1PBE) =  -560.059428926     A.U. after   12 cycles
             Convg  =    0.6883D-08             -V/T =  2.0032

 **********************************************************************

            Population analysis using the SCF density.

 **********************************************************************

 Orbital symmetries:
       Occupied  (A) (A) (A) (A) (A) (A) (A) (A) (A) (A) (A) (A)
                 (A) (A) (A) (A) (A) (A) (A) (A) (A) (A) (A) (A)
                 (A) (A) (A) (A) (A)
       Virtual   (A) (A) (A) (A) (A) (A) (A) (A) (A) (A) (A) (A)
                 (A) (A) (A) (A) (A) (A) (A) (A) (A) (A) (A) (A)
                 (A) (A) (A) (A) (A) (A) (A) (A) (A) (A) (A) (A)
                 (A) (A) (A) (A) (A) (A) (A) (A) (A) (A) (A) (A)
                 (A) (A) (A) (A) (A) (A) (A) (A) (A) (A) (A) (A)
                 (A) (A) (A) (A) (A) (A) (A) (A) (A) (A) (A) (A)
                 (A) (A) (A) (A) (A) (A) (A) (A) (A) (A) (A) (A)
                 (A) (A) (A) (A) (A) (A) (A) (A) (A) (A) (A) (A)
                 (A) (A) (A) (A) (A) (A) (A) (A) (A) (A) (A) (A)
                 (A) (A) (A) (A) (A) (A) (A) (A) (A) (A) (A) (A)
                 (A) (A) (A) (A) (A) (A) (A) (A) (A) (A) (A) (A)
                 (A) (A) (A) (A) (A) (A) (A) (A) (A) (A) (A) (A)
                 (A) (A) (A) (A) (A) (A) (A) (A) (A) (A) (A) (A)
                 (A) (A) (A) (A) (A) (A) (A) (A) (A) (A) (A) (A)
                 (A) (A) (A) (A) (A) (A) (A) (A) (A) (A) (A) (A)
                 (A) (A) (A) (A) (A) (A) (A) (A) (A) (A) (A) (A)
                 (A) (A) (A) (A) (A) (A) (A) (A) (A) (A) (A) (A)
                 (A) (A) (A) (A) (A) (A) (A) (A) (A) (A) (A) (A)
                 (A) (A) (A) (A) (A) (A) (A)
 The electronic state is 1-A.
 Alpha  occ. eigenvalues --  -66.25322 -19.20301 -19.19630 -10.26183 -10.21882
 Alpha  occ. eigenvalues --  -10.21361  -5.32988  -3.66529  -3.66395  -3.66252
 Alpha  occ. eigenvalues --   -1.04315  -1.02111  -0.78494  -0.70272  -0.64280
 Alpha  occ. eigenvalues --   -0.56745  -0.50937  -0.46625  -0.46492  -0.46125
 Alpha  occ. eigenvalues --   -0.43574  -0.40877  -0.39264  -0.37156  -0.36668
 Alpha  occ. eigenvalues --   -0.35716  -0.31655  -0.30515  -0.29532
 Alpha virt. eigenvalues --    0.02072   0.05600   0.06046   0.07977   0.08951
 Alpha virt. eigenvalues --    0.10195   0.10494   0.11735   0.12511   0.13570
 Alpha virt. eigenvalues --    0.14555   0.15043   0.15453   0.16222   0.19165
 Alpha virt. eigenvalues --    0.21366   0.21872   0.23734   0.24262   0.24837
 Alpha virt. eigenvalues --    0.26631   0.28008   0.29528   0.29980   0.31113
 Alpha virt. eigenvalues --    0.33703   0.36952   0.39763   0.40243   0.40643
 Alpha virt. eigenvalues --    0.41935   0.42448   0.44380   0.45054   0.45581
 Alpha virt. eigenvalues --    0.46672   0.47501   0.47910   0.49886   0.50652
 Alpha virt. eigenvalues --    0.51145   0.53624   0.55687   0.56393   0.58950
 Alpha virt. eigenvalues --    0.61009   0.62595   0.64699   0.66256   0.68832
 Alpha virt. eigenvalues --    0.73457   0.74636   0.76176   0.77728   0.81059
 Alpha virt. eigenvalues --    0.82637   0.84526   0.86205   0.88634   0.91988
 Alpha virt. eigenvalues --    0.93177   0.95719   0.96653   0.99429   1.01257
 Alpha virt. eigenvalues --    1.04203   1.07055   1.08450   1.08906   1.11277
 Alpha virt. eigenvalues --    1.12007   1.12389   1.15163   1.18232   1.21720
 Alpha virt. eigenvalues --    1.26230   1.28802   1.31691   1.37002   1.40875
 Alpha virt. eigenvalues --    1.41800   1.46167   1.47516   1.50208   1.52473
 Alpha virt. eigenvalues --    1.53396   1.54284   1.55097   1.56300   1.57325
 Alpha virt. eigenvalues --    1.59931   1.62096   1.62868   1.63834   1.65998
 Alpha virt. eigenvalues --    1.67129   1.72561   1.75323   1.76090   1.79902
 Alpha virt. eigenvalues --    1.81150   1.83211   1.87675   1.89329   1.92088
 Alpha virt. eigenvalues --    1.94689   1.95822   1.99357   2.01014   2.04131
 Alpha virt. eigenvalues --    2.05283   2.09155   2.09698   2.12258   2.15297
 Alpha virt. eigenvalues --    2.16589   2.18591   2.27111   2.29600   2.29864
 Alpha virt. eigenvalues --    2.32844   2.33154   2.34768   2.35533   2.35927
 Alpha virt. eigenvalues --    2.36989   2.40902   2.44795   2.47116   2.48744
 Alpha virt. eigenvalues --    2.51059   2.52089   2.54613   2.56315   2.58467
 Alpha virt. eigenvalues --    2.59610   2.61241   2.65194   2.66487   2.71415
 Alpha virt. eigenvalues --    2.73073   2.77325   2.80916   2.83912   2.84527
 Alpha virt. eigenvalues --    2.88011   2.93130   2.95461   2.99749   3.02926
 Alpha virt. eigenvalues --    3.07247   3.08965   3.10510   3.11302   3.15244
 Alpha virt. eigenvalues --    3.20665   3.22113   3.23073   3.27487   3.30441
 Alpha virt. eigenvalues --    3.32134   3.33133   3.36722   3.40227   3.44203
 Alpha virt. eigenvalues --    3.45115   3.46378   3.48256   3.53243   3.54496
 Alpha virt. eigenvalues --    3.58849   3.60303   3.63319   3.65413   3.76831
 Alpha virt. eigenvalues --    3.80796   3.87955   3.92279   3.95698   4.02785
 Alpha virt. eigenvalues --    4.19566   4.23843   4.25702   4.34079   4.37340
 Alpha virt. eigenvalues --    4.41651   4.46627   4.53351   4.57072   4.78417
 Alpha virt. eigenvalues --    5.15544   5.16528   5.18026   5.18828   5.28701
 Alpha virt. eigenvalues --    5.30385   5.38775   5.41765   5.45578   5.50108
 Alpha virt. eigenvalues --    5.80050   5.87142   6.04061   6.23451   6.40511
 Alpha virt. eigenvalues --    6.40971   6.53356   6.58247   6.60792   6.68231
 Alpha virt. eigenvalues --    6.69143   6.78912   6.81870   6.98587   7.06933
 Alpha virt. eigenvalues --    7.14829   7.21612  11.90982  22.37105  22.40762
 Alpha virt. eigenvalues --   22.45210  43.61638  43.94302
          Condensed to atoms (all electrons):
              1          2          3          4          5          6
     1  H    0.552234   0.408657  -0.033872  -0.026102  -0.024557  -0.006815
     2  C    0.408657   4.935846   0.316327   0.402577   0.413310  -0.030044
     3  C   -0.033872   0.316327   5.044493  -0.043714  -0.039616   0.387106
     4  H   -0.026102   0.402577  -0.043714   0.578838  -0.026751  -0.004710
     5  H   -0.024557   0.413310  -0.039616  -0.026751   0.531287   0.007696
     6  H   -0.006815  -0.030044   0.387106  -0.004710   0.007696   0.576160
     7  Si   0.007149  -0.021488   0.406523  -0.003779  -0.008266  -0.028752
     8  H   -0.006977  -0.027632   0.372799   0.008281  -0.004061  -0.025689
     9  O   -0.000077  -0.002930  -0.034963   0.003252  -0.000259  -0.000399
    10  O    0.000007  -0.004624  -0.031356   0.000166   0.007699   0.001325
    11  H   -0.000130   0.001842  -0.036742   0.000214   0.000409   0.001377
    12  H   -0.000069   0.000074  -0.002433   0.001431   0.000050   0.000047
    13  C    0.000007  -0.000045   0.001414   0.000093  -0.000052  -0.000118
    14  H   -0.000004   0.000232  -0.000349  -0.000004  -0.000168  -0.000001
    15  H    0.000000  -0.000037  -0.000034  -0.000004   0.000084   0.000009
    16  H    0.000001  -0.000179   0.000819  -0.000002   0.000015   0.000013
              7          8          9         10         11         12
     1  H    0.007149  -0.006977  -0.000077   0.000007  -0.000130  -0.000069
     2  C   -0.021488  -0.027632  -0.002930  -0.004624   0.001842   0.000074
     3  C    0.406523   0.372799  -0.034963  -0.031356  -0.036742  -0.002433
     4  H   -0.003779   0.008281   0.003252   0.000166   0.000214   0.001431
     5  H   -0.008266  -0.004061  -0.000259   0.007699   0.000409   0.000050
     6  H   -0.028752  -0.025689  -0.000399   0.001325   0.001377   0.000047
     7  Si  11.899060  -0.010524   0.475696   0.454623   0.390070  -0.028161
     8  H   -0.010524   0.566826   0.001306   0.001416   0.000559  -0.000035
     9  O    0.475696   0.001306   7.845057  -0.039483  -0.020095   0.297360
    10  O    0.454623   0.001416  -0.039483   7.844709  -0.026683  -0.000965
    11  H    0.390070   0.000559  -0.020095  -0.026683   0.742914   0.005197
    12  H   -0.028161  -0.000035   0.297360  -0.000965   0.005197   0.410909
    13  C   -0.051488   0.000081  -0.009953   0.264071   0.002836   0.000924
    14  H    0.007851  -0.000003   0.000191  -0.040483  -0.000252   0.000021
    15  H   -0.017039  -0.000024  -0.000468  -0.043131   0.010512   0.000014
    16  H   -0.004659  -0.000012   0.008595  -0.044655  -0.001937   0.000334
             13         14         15         16
     1  H    0.000007  -0.000004   0.000000   0.000001
     2  C   -0.000045   0.000232  -0.000037  -0.000179
     3  C    0.001414  -0.000349  -0.000034   0.000819
     4  H    0.000093  -0.000004  -0.000004  -0.000002
     5  H   -0.000052  -0.000168   0.000084   0.000015
     6  H   -0.000118  -0.000001   0.000009   0.000013
     7  Si  -0.051488   0.007851  -0.017039  -0.004659
     8  H    0.000081  -0.000003  -0.000024  -0.000012
     9  O   -0.009953   0.000191  -0.000468   0.008595
    10  O    0.264071  -0.040483  -0.043131  -0.044655
    11  H    0.002836  -0.000252   0.010512  -0.001937
    12  H    0.000924   0.000021   0.000014   0.000334
    13  C    4.766816   0.401767   0.418082   0.410734
    14  H    0.401767   0.569063  -0.031106  -0.034353
    15  H    0.418082  -0.031106   0.593221  -0.046686
    16  H    0.410734  -0.034353  -0.046686   0.596078
 Mulliken atomic charges:
              1
     1  H    0.130549
     2  C   -0.391886
     3  C   -0.306402
     4  H    0.110215
     5  H    0.143180
     6  H    0.122796
     7  Si   0.533184
     8  H    0.123689
     9  O   -0.522831
    10  O   -0.342637
    11  H   -0.070090
    12  H    0.315303
    13  C   -0.205168
    14  H    0.127597
    15  H    0.116606
    16  H    0.115894
 Sum of Mulliken atomic charges =   0.00000
 Mulliken charges with hydrogens summed into heavy atoms:
              1
     2  C   -0.007942
     3  C   -0.059916
     7  Si   0.463095
     9  O   -0.207528
    10  O   -0.342637
    13  C    0.154929
 Sum of Mulliken charges with hydrogens summed into heavy atoms =   0.00000
 Electronic spatial extent (au):  <R**2>=            869.4782
 Charge=              0.0000 electrons
 Dipole moment (field-independent basis, Debye):
    X=             -0.6033    Y=             -0.5273    Z=             -1.0272  Tot=              1.3028
 Quadrupole moment (field-independent basis, Debye-Ang):
   XX=            -41.5150   YY=            -49.0032   ZZ=            -42.7876
   XY=             -2.0407   XZ=             -0.6828   YZ=             -2.0874
 Traceless Quadrupole moment (field-independent basis, Debye-Ang):
   XX=              2.9203   YY=             -4.5679   ZZ=              1.6476
   XY=             -2.0407   XZ=             -0.6828   YZ=             -2.0874
 Octapole moment (field-independent basis, Debye-Ang**2):
  XXX=             13.2163  YYY=             -5.7637  ZZZ=            -11.3326  XYY=             -1.3739
  XXY=             -3.1986  XXZ=             -0.5399  XZZ=              1.5302  YZZ=              5.0534
  YYZ=             -3.9906  XYZ=              1.1133
 Hexadecapole moment (field-independent basis, Debye-Ang**3):
 XXXX=           -711.9545 YYYY=           -289.9110 ZZZZ=           -164.2808 XXXY=            -10.7984
 XXXZ=             -6.4828 YYYX=            -12.1013 YYYZ=             -8.1772 ZZZX=             -5.4150
 ZZZY=            -21.0014 XXYY=           -164.1428 XXZZ=           -151.4590 YYZZ=            -64.8982
 XXYZ=             -0.9363 YYXZ=             -2.9640 ZZXY=             -2.1397
 N-N= 3.294825386193D+02 E-N=-1.982971019919D+03  KE= 5.582482355604D+02
 1\1\GINC-TARSUS4\SP\RPBE1PBE\def2TZVP\C3H10O2Si1\RENATO\08-Aug-2018\0\
 \#SP PBE1PBE/Def2TZVP geom=connectivity\\Structure: 89\\0,1\H,0,0.,0.,
 0.\C,0,1.093,0.,0.\C,0,1.655,1.421,0.\H,0,1.41,-0.56,-0.885\H,0,1.424,
 -0.557,0.88\H,0,1.308,1.969,-0.883\Si,0,3.513,1.515,0.035\H,0,1.282,1.
 975,0.868\O,0,4.396,0.832,-1.178\O,0,3.968,0.824,1.454\H,0,4.029,2.906
 ,-0.04\H,0,4.235,-0.091,-1.377\C,0,5.301,0.766,1.905\H,0,5.308,0.322,2
 .902\H,0,5.747,1.766,1.967\H,0,5.921,0.153,1.244\\Version=EM64L-G09Rev
 C.01\State=1-A\HF=-560.0594289\RMSD=6.883e-09\Dipole=-0.2349641,-0.454
 4761,0.0307074\Quadrupole=0.7622719,0.2632084,-1.0254803,-1.559831,2.5
 39978,2.0264614\PG=C01 [X(C3H10O2Si1)]\\@


 IMAGINATION WILL OFTEN CARRY US TO WORLDS THAT NEVER WERE.
 BUT WITHOUT IT, WE GO NOWHERE. -- CARL SAGAN (COSMOS)
 Job cpu time:  0 days  0 hours  9 minutes 20.1 seconds.
 File lengths (MBytes):  RWF=     40 Int=      0 D2E=      0 Chk=      3 Scr=      1
 Normal termination of Gaussian 09 at Wed Aug  8 19:58:56 2018.
