 Entering Gaussian System, Link 0=g09
 Initial command:
 /usr/local/gaussian09/g09/l1.exe /scratch/renato/Gau-11351.inp -scrdir=/scratch/renato/
 Entering Link 1 = /usr/local/gaussian09/g09/l1.exe PID=     11353.
  
 Copyright (c) 1988,1990,1992,1993,1995,1998,2003,2009,2011,
            Gaussian, Inc.  All Rights Reserved.
  
 This is part of the Gaussian(R) 09 program.  It is based on
 the Gaussian(R) 03 system (copyright 2003, Gaussian, Inc.),
 the Gaussian(R) 98 system (copyright 1998, Gaussian, Inc.),
 the Gaussian(R) 94 system (copyright 1995, Gaussian, Inc.),
 the Gaussian 92(TM) system (copyright 1992, Gaussian, Inc.),
 the Gaussian 90(TM) system (copyright 1990, Gaussian, Inc.),
 the Gaussian 88(TM) system (copyright 1988, Gaussian, Inc.),
 the Gaussian 86(TM) system (copyright 1986, Carnegie Mellon
 University), and the Gaussian 82(TM) system (copyright 1983,
 Carnegie Mellon University). Gaussian is a federally registered
 trademark of Gaussian, Inc.
  
 This software contains proprietary and confidential information,
 including trade secrets, belonging to Gaussian, Inc.
  
 This software is provided under written license and may be
 used, copied, transmitted, or stored only in accord with that
 written license.
  
 The following legend is applicable only to US Government
 contracts under FAR:
  
                    RESTRICTED RIGHTS LEGEND
  
 Use, reproduction and disclosure by the US Government is
 subject to restrictions as set forth in subparagraphs (a)
 and (c) of the Commercial Computer Software - Restricted
 Rights clause in FAR 52.227-19.
  
 Gaussian, Inc.
 340 Quinnipiac St., Bldg. 40, Wallingford CT 06492
  
  
 ---------------------------------------------------------------
 Warning -- This program may not be used in any manner that
 competes with the business of Gaussian, Inc. or will provide
 assistance to any competitor of Gaussian, Inc.  The licensee
 of this program is prohibited from giving any competitor of
 Gaussian, Inc. access to this program.  By using this program,
 the user acknowledges that Gaussian, Inc. is engaged in the
 business of creating and licensing software in the field of
 computational chemistry and represents and warrants to the
 licensee that it is not a competitor of Gaussian, Inc. and that
 it will not use this program in any manner prohibited above.
 ---------------------------------------------------------------
  

 Cite this work as:
 Gaussian 09, Revision C.01,
 M. J. Frisch, G. W. Trucks, H. B. Schlegel, G. E. Scuseria, 
 M. A. Robb, J. R. Cheeseman, G. Scalmani, V. Barone, B. Mennucci, 
 G. A. Petersson, H. Nakatsuji, M. Caricato, X. Li, H. P. Hratchian, 
 A. F. Izmaylov, J. Bloino, G. Zheng, J. L. Sonnenberg, M. Hada, 
 M. Ehara, K. Toyota, R. Fukuda, J. Hasegawa, M. Ishida, T. Nakajima, 
 Y. Honda, O. Kitao, H. Nakai, T. Vreven, J. A. Montgomery, Jr., 
 J. E. Peralta, F. Ogliaro, M. Bearpark, J. J. Heyd, E. Brothers, 
 K. N. Kudin, V. N. Staroverov, T. Keith, R. Kobayashi, J. Normand, 
 K. Raghavachari, A. Rendell, J. C. Burant, S. S. Iyengar, J. Tomasi, 
 M. Cossi, N. Rega, J. M. Millam, M. Klene, J. E. Knox, J. B. Cross, 
 V. Bakken, C. Adamo, J. Jaramillo, R. Gomperts, R. E. Stratmann, 
 O. Yazyev, A. J. Austin, R. Cammi, C. Pomelli, J. W. Ochterski, 
 R. L. Martin, K. Morokuma, V. G. Zakrzewski, G. A. Voth, 
 P. Salvador, J. J. Dannenberg, S. Dapprich, A. D. Daniels, 
 O. Farkas, J. B. Foresman, J. V. Ortiz, J. Cioslowski, 
 and D. J. Fox, Gaussian, Inc., Wallingford CT, 2010.
 
 ******************************************
 Gaussian 09:  EM64L-G09RevC.01 23-Sep-2011
                 8-Aug-2018 
 ******************************************
 %nproc=2
 Will use up to    2 processors via shared memory.
 %mem=256MB
 %RWF=a13.rwf
 %chk=a1394
 %NoSave
 --------------------------------------
 #SP PBE1PBE/Def2TZVP geom=connectivity
 --------------------------------------
 1/38=1,57=2/1;
 2/12=2,17=6,18=5,40=1/2;
 3/5=44,7=101,11=2,16=1,25=1,30=1,74=-13/1,2,3;
 4//1;
 5/5=2,38=5/2;
 6/7=2,8=2,9=2,10=2,28=1/1;
 99/5=1,9=1/99;
 -------------
 Structure: 94
 -------------
 Charge =  0 Multiplicity = 1
 Symbolic Z-Matrix:
 H                     0.        0.        0. 
 C                     1.093     0.        0. 
 C                     1.655     1.421     0. 
 H                     1.41     -0.56     -0.885 
 H                     1.424    -0.557     0.88 
 H                     1.308     1.969    -0.883 
 Si                    3.513     1.515     0.035 
 H                     1.282     1.975     0.868 
 O                     4.436     0.847    -1.156 
 O                     3.968     0.824     1.454 
 H                     4.029     2.906    -0.04 
 H                     4.294    -0.079    -1.36 
 C                     5.301     0.766     1.905 
 H                     5.308     0.322     2.902 
 H                     5.747     1.766     1.967 
 H                     5.921     0.153     1.244 
 
                          Input orientation:                          
 ---------------------------------------------------------------------
 Center     Atomic      Atomic             Coordinates (Angstroms)
 Number     Number       Type             X           Y           Z
 ---------------------------------------------------------------------
      1          1           0        0.000000    0.000000    0.000000
      2          6           0        1.093000    0.000000    0.000000
      3          6           0        1.655000    1.421000    0.000000
      4          1           0        1.410000   -0.560000   -0.885000
      5          1           0        1.424000   -0.557000    0.880000
      6          1           0        1.308000    1.969000   -0.883000
      7         14           0        3.513000    1.515000    0.035000
      8          1           0        1.282000    1.975000    0.868000
      9          8           0        4.436000    0.847000   -1.156000
     10          8           0        3.968000    0.824000    1.454000
     11          1           0        4.029000    2.906000   -0.040000
     12          1           0        4.294000   -0.079000   -1.360000
     13          6           0        5.301000    0.766000    1.905000
     14          1           0        5.308000    0.322000    2.902000
     15          1           0        5.747000    1.766000    1.967000
     16          1           0        5.921000    0.153000    1.244000
 ---------------------------------------------------------------------
                    Distance matrix (angstroms):
                    1          2          3          4          5
     1  H    0.000000
     2  C    1.093000   0.000000
     3  C    2.181345   1.528098   0.000000
     4  H    1.756395   1.094218   2.183486   0.000000
     5  H    1.764207   1.092799   2.177210   1.765058   0.000000
     6  H    2.523393   2.168611   1.095629   2.531057   3.082580
     7  Si   3.825914   2.855320   1.860706   3.094291   3.061230
     8  H    2.509497   2.165588   1.095203   3.084740   2.536007
     9  O    4.661742   3.637223   3.065905   3.348099   3.897263
    10  O    4.305591   3.325465   2.796515   3.732257   2.951029
    11  H    4.967824   4.131166   2.800482   4.425646   4.429988
    12  H    4.504917   3.478828   3.326247   2.962168   3.671918
    13  C    5.684750   4.682205   4.165497   4.968124   4.222805
    14  H    6.058065   5.127525   4.793101   5.505788   4.466160
    15  H    6.325809   5.352342   4.553304   5.688036   5.026552
    16  H    6.052205   4.988039   4.621051   5.038862   4.567232
                    6          7          8          9         10
     6  H    0.000000
     7  Si   2.431227   0.000000
     8  H    1.751203   2.425459   0.000000
     9  O    3.334336   1.648221   3.913653   0.000000
    10  O    3.721316   1.642579   2.980401   2.651726   0.000000
    11  H    2.998743   1.485517   3.039282   2.377096   2.563295
    12  H    3.652127   2.257614   4.272592   0.958778   2.973261
    13  C    5.016393   2.693482   4.323125   3.181903   1.408423
    14  H    5.747942   3.586776   4.803982   4.183703   2.035757
    15  H    5.279056   2.964183   4.603011   3.509474   2.077348
    16  H    5.394604   3.019137   4.998138   2.906348   2.075705
                   11         12         13         14         15
    11  H    0.000000
    12  H    3.274576   0.000000
    13  C    3.159210   3.519702   0.000000
    14  H    4.119255   4.399277   1.091418   0.000000
    15  H    2.877355   4.072366   1.096704   1.775410   0.000000
    16  H    3.578733   3.079248   1.094116   1.775752   1.776168
                   16
    16  H    0.000000
 Stoichiometry    C3H10O2Si
 Framework group  C1[X(C3H10O2Si)]
 Deg. of freedom    42
 Full point group                 C1      NOp   1
 Largest Abelian subgroup         C1      NOp   1
 Largest concise Abelian subgroup C1      NOp   1
                         Standard orientation:                         
 ---------------------------------------------------------------------
 Center     Atomic      Atomic             Coordinates (Angstroms)
 Number     Number       Type             X           Y           Z
 ---------------------------------------------------------------------
      1          1           0       -3.313034   -1.069562   -0.509353
      2          6           0       -2.298691   -0.693698   -0.665825
      3          6           0       -1.679107   -0.189227    0.636754
      4          1           0       -2.367087    0.100777   -1.415122
      5          1           0       -1.707814   -1.505401   -1.097348
      6          1           0       -2.286552    0.617742    1.061269
      7         14           0        0.064479    0.438335    0.468538
      8          1           0       -1.669318   -0.988751    1.385176
      9          8           0        0.439012    1.696963   -0.527561
     10          8           0        0.958488   -0.852244   -0.014393
     11          1           0        0.611850    0.988900    1.735039
     12          1           0        0.168677    1.631608   -1.445114
     13          6           0        2.356646   -0.818366   -0.180708
     14          1           0        2.697462   -1.823574   -0.434863
     15          1           0        2.862230   -0.502600    0.739855
     16          1           0        2.647783   -0.135839   -0.984753
 ---------------------------------------------------------------------
 Rotational constants (GHZ):      4.0784675      1.8922885      1.5700256
 Standard basis: def2TZVP (5D, 7F)
 There are   252 symmetry adapted basis functions of A   symmetry.
 Integral buffers will be    131072 words long.
 Raffenetti 2 integral format.
 Two-electron integral symmetry is turned on.
   252 basis functions,   404 primitive gaussians,   282 cartesian basis functions
    29 alpha electrons       29 beta electrons
       nuclear repulsion energy       329.4961071458 Hartrees.
 NAtoms=   16 NActive=   16 NUniq=   16 SFac= 1.00D+00 NAtFMM=   60 NAOKFM=F Big=F
 One-electron integrals computed using PRISM.
   1 Symmetry operations used in ECPInt.
 ECPInt:  NShTT=    5886 NPrTT=   17754 LenC2=    5777 LenP2D=   13915.
 LDataN:  DoStor=T MaxTD1= 6 Len=  172
 NBasis=   252 RedAO= T  NBF=   252
 NBsUse=   252 1.00D-06 NBFU=   252
 Harris functional with IExCor= 1009 diagonalized for initial guess.
 ExpMin= 7.01D-02 ExpMax= 4.48D+04 ExpMxC= 1.53D+03 IAcc=2 IRadAn=         4 AccDes= 0.00D+00
 HarFok:  IExCor= 1009 AccDes= 0.00D+00 IRadAn=         4 IDoV= 1
 ScaDFX=  1.000000  1.000000  1.000000  1.000000
 FoFCou: FMM=F IPFlag=           0 FMFlag=      100000 FMFlg1=           0
         NFxFlg=           0 DoJE=T BraDBF=F KetDBF=T FulRan=T
         Omega=  0.000000  0.000000  1.000000  0.000000  0.000000 ICntrl=     500 IOpCl=  0
         NMat0=    1 NMatS0=    1 NMatT0=    0 NMatD0=    1 NMtDS0=    0 NMtDT0=    0
         I1Cent=           4 NGrid=           0.
 Petite list used in FoFCou.
 Initial guess orbital symmetries:
       Occupied  (A) (A) (A) (A) (A) (A) (A) (A) (A) (A) (A) (A)
                 (A) (A) (A) (A) (A) (A) (A) (A) (A) (A) (A) (A)
                 (A) (A) (A) (A) (A)
       Virtual   (A) (A) (A) (A) (A) (A) (A) (A) (A) (A) (A) (A)
                 (A) (A) (A) (A) (A) (A) (A) (A) (A) (A) (A) (A)
                 (A) (A) (A) (A) (A) (A) (A) (A) (A) (A) (A) (A)
                 (A) (A) (A) (A) (A) (A) (A) (A) (A) (A) (A) (A)
                 (A) (A) (A) (A) (A) (A) (A) (A) (A) (A) (A) (A)
                 (A) (A) (A) (A) (A) (A) (A) (A) (A) (A) (A) (A)
                 (A) (A) (A) (A) (A) (A) (A) (A) (A) (A) (A) (A)
                 (A) (A) (A) (A) (A) (A) (A) (A) (A) (A) (A) (A)
                 (A) (A) (A) (A) (A) (A) (A) (A) (A) (A) (A) (A)
                 (A) (A) (A) (A) (A) (A) (A) (A) (A) (A) (A) (A)
                 (A) (A) (A) (A) (A) (A) (A) (A) (A) (A) (A) (A)
                 (A) (A) (A) (A) (A) (A) (A) (A) (A) (A) (A) (A)
                 (A) (A) (A) (A) (A) (A) (A) (A) (A) (A) (A) (A)
                 (A) (A) (A) (A) (A) (A) (A) (A) (A) (A) (A) (A)
                 (A) (A) (A) (A) (A) (A) (A) (A) (A) (A) (A) (A)
                 (A) (A) (A) (A) (A) (A) (A) (A) (A) (A) (A) (A)
                 (A) (A) (A) (A) (A) (A) (A) (A) (A) (A) (A) (A)
                 (A) (A) (A) (A) (A) (A) (A) (A) (A) (A) (A) (A)
                 (A) (A) (A) (A) (A) (A) (A)
 The electronic state of the initial guess is 1-A.
 Requested convergence on RMS density matrix=1.00D-08 within 128 cycles.
 Requested convergence on MAX density matrix=1.00D-06.
 Requested convergence on             energy=1.00D-06.
 No special actions if energy rises.
 Integral accuracy reduced to 1.0D-05 until final iterations.
 Initial convergence to 1.0D-05 achieved.  Increase integral accuracy.
 SCF Done:  E(RPBE1PBE) =  -560.058460812     A.U. after   12 cycles
             Convg  =    0.7383D-08             -V/T =  2.0032

 **********************************************************************

            Population analysis using the SCF density.

 **********************************************************************

 Orbital symmetries:
       Occupied  (A) (A) (A) (A) (A) (A) (A) (A) (A) (A) (A) (A)
                 (A) (A) (A) (A) (A) (A) (A) (A) (A) (A) (A) (A)
                 (A) (A) (A) (A) (A)
       Virtual   (A) (A) (A) (A) (A) (A) (A) (A) (A) (A) (A) (A)
                 (A) (A) (A) (A) (A) (A) (A) (A) (A) (A) (A) (A)
                 (A) (A) (A) (A) (A) (A) (A) (A) (A) (A) (A) (A)
                 (A) (A) (A) (A) (A) (A) (A) (A) (A) (A) (A) (A)
                 (A) (A) (A) (A) (A) (A) (A) (A) (A) (A) (A) (A)
                 (A) (A) (A) (A) (A) (A) (A) (A) (A) (A) (A) (A)
                 (A) (A) (A) (A) (A) (A) (A) (A) (A) (A) (A) (A)
                 (A) (A) (A) (A) (A) (A) (A) (A) (A) (A) (A) (A)
                 (A) (A) (A) (A) (A) (A) (A) (A) (A) (A) (A) (A)
                 (A) (A) (A) (A) (A) (A) (A) (A) (A) (A) (A) (A)
                 (A) (A) (A) (A) (A) (A) (A) (A) (A) (A) (A) (A)
                 (A) (A) (A) (A) (A) (A) (A) (A) (A) (A) (A) (A)
                 (A) (A) (A) (A) (A) (A) (A) (A) (A) (A) (A) (A)
                 (A) (A) (A) (A) (A) (A) (A) (A) (A) (A) (A) (A)
                 (A) (A) (A) (A) (A) (A) (A) (A) (A) (A) (A) (A)
                 (A) (A) (A) (A) (A) (A) (A) (A) (A) (A) (A) (A)
                 (A) (A) (A) (A) (A) (A) (A) (A) (A) (A) (A) (A)
                 (A) (A) (A) (A) (A) (A) (A) (A) (A) (A) (A) (A)
                 (A) (A) (A) (A) (A) (A) (A)
 The electronic state is 1-A.
 Alpha  occ. eigenvalues --  -66.25311 -19.20308 -19.19538 -10.26119 -10.21917
 Alpha  occ. eigenvalues --  -10.21470  -5.32979  -3.66525  -3.66383  -3.66238
 Alpha  occ. eigenvalues --   -1.04288  -1.02040  -0.78558  -0.70213  -0.64330
 Alpha  occ. eigenvalues --   -0.56741  -0.50876  -0.46582  -0.46477  -0.46140
 Alpha  occ. eigenvalues --   -0.43572  -0.40866  -0.39299  -0.37132  -0.36693
 Alpha  occ. eigenvalues --   -0.35700  -0.31616  -0.30515  -0.29467
 Alpha virt. eigenvalues --    0.01988   0.05589   0.06033   0.07974   0.08943
 Alpha virt. eigenvalues --    0.10178   0.10412   0.11802   0.12555   0.13581
 Alpha virt. eigenvalues --    0.14578   0.14896   0.15487   0.16184   0.19141
 Alpha virt. eigenvalues --    0.21387   0.21835   0.23763   0.24237   0.24804
 Alpha virt. eigenvalues --    0.26618   0.27948   0.29529   0.30153   0.31069
 Alpha virt. eigenvalues --    0.33895   0.37016   0.39814   0.40312   0.40648
 Alpha virt. eigenvalues --    0.41916   0.42462   0.44344   0.45061   0.45592
 Alpha virt. eigenvalues --    0.46820   0.47499   0.47942   0.49747   0.50663
 Alpha virt. eigenvalues --    0.51181   0.53702   0.55836   0.56284   0.58671
 Alpha virt. eigenvalues --    0.60988   0.62565   0.64552   0.66345   0.69043
 Alpha virt. eigenvalues --    0.73249   0.74566   0.76464   0.77799   0.81064
 Alpha virt. eigenvalues --    0.82548   0.84670   0.86165   0.88822   0.91980
 Alpha virt. eigenvalues --    0.93225   0.95774   0.96594   0.99425   1.01286
 Alpha virt. eigenvalues --    1.04233   1.07026   1.08398   1.08912   1.11178
 Alpha virt. eigenvalues --    1.12010   1.12372   1.15053   1.17954   1.21896
 Alpha virt. eigenvalues --    1.26568   1.28892   1.31506   1.37129   1.40590
 Alpha virt. eigenvalues --    1.41797   1.45987   1.47479   1.50362   1.52405
 Alpha virt. eigenvalues --    1.53445   1.54232   1.55127   1.56358   1.57259
 Alpha virt. eigenvalues --    1.60054   1.61955   1.62560   1.63909   1.66015
 Alpha virt. eigenvalues --    1.67028   1.72670   1.75252   1.75795   1.79894
 Alpha virt. eigenvalues --    1.81357   1.83228   1.88040   1.89458   1.92259
 Alpha virt. eigenvalues --    1.94647   1.95839   1.99290   2.00576   2.04240
 Alpha virt. eigenvalues --    2.05216   2.09342   2.09759   2.12231   2.15339
 Alpha virt. eigenvalues --    2.16522   2.18614   2.27209   2.29690   2.29845
 Alpha virt. eigenvalues --    2.32800   2.33162   2.34882   2.35629   2.35908
 Alpha virt. eigenvalues --    2.37354   2.41076   2.45077   2.46970   2.48637
 Alpha virt. eigenvalues --    2.51140   2.52148   2.54515   2.56377   2.58464
 Alpha virt. eigenvalues --    2.59689   2.61174   2.65194   2.66426   2.71536
 Alpha virt. eigenvalues --    2.73062   2.77431   2.80973   2.84129   2.84420
 Alpha virt. eigenvalues --    2.88419   2.93200   2.95756   2.99662   3.03129
 Alpha virt. eigenvalues --    3.07102   3.08971   3.10563   3.11275   3.15266
 Alpha virt. eigenvalues --    3.20755   3.22034   3.23077   3.27530   3.30631
 Alpha virt. eigenvalues --    3.32134   3.33257   3.36678   3.40223   3.44213
 Alpha virt. eigenvalues --    3.45248   3.46487   3.48561   3.53222   3.54609
 Alpha virt. eigenvalues --    3.58950   3.59906   3.63537   3.65609   3.76854
 Alpha virt. eigenvalues --    3.80672   3.87955   3.92144   3.95635   4.02683
 Alpha virt. eigenvalues --    4.19660   4.23772   4.25854   4.34048   4.37443
 Alpha virt. eigenvalues --    4.41660   4.46548   4.53352   4.57038   4.78360
 Alpha virt. eigenvalues --    5.15521   5.16492   5.18059   5.19034   5.28798
 Alpha virt. eigenvalues --    5.30630   5.38841   5.41763   5.45559   5.50043
 Alpha virt. eigenvalues --    5.80084   5.87286   6.04169   6.23330   6.40071
 Alpha virt. eigenvalues --    6.40754   6.53354   6.58041   6.60991   6.68536
 Alpha virt. eigenvalues --    6.69693   6.78850   6.81867   6.99101   7.07141
 Alpha virt. eigenvalues --    7.14582   7.21475  11.90573  22.37126  22.40725
 Alpha virt. eigenvalues --   22.45227  43.61682  43.94275
          Condensed to atoms (all electrons):
              1          2          3          4          5          6
     1  H    0.552487   0.408683  -0.033915  -0.026249  -0.024539  -0.006803
     2  C    0.408683   4.934929   0.316591   0.403002   0.413386  -0.030240
     3  C   -0.033915   0.316591   5.047250  -0.043527  -0.039616   0.387066
     4  H   -0.026249   0.403002  -0.043527   0.577557  -0.026585  -0.004659
     5  H   -0.024539   0.413386  -0.039616  -0.026585   0.530721   0.007683
     6  H   -0.006803  -0.030240   0.387066  -0.004659   0.007683   0.575685
     7  Si   0.006995  -0.021868   0.402906  -0.003510  -0.008219  -0.028744
     8  H   -0.006991  -0.027472   0.373365   0.008154  -0.004055  -0.025499
     9  O   -0.000089  -0.002852  -0.034233   0.002949  -0.000231  -0.000287
    10  O    0.000005  -0.004516  -0.031283   0.000110   0.007726   0.001332
    11  H   -0.000134   0.001859  -0.037232   0.000214   0.000409   0.001378
    12  H   -0.000066   0.000037  -0.002534   0.001298   0.000054   0.000043
    13  C    0.000006  -0.000035   0.001284   0.000090  -0.000049  -0.000116
    14  H   -0.000004   0.000234  -0.000331  -0.000004  -0.000169  -0.000001
    15  H    0.000000  -0.000036  -0.000032  -0.000004   0.000084   0.000010
    16  H    0.000001  -0.000192   0.000814   0.000001   0.000016   0.000013
              7          8          9         10         11         12
     1  H    0.006995  -0.006991  -0.000089   0.000005  -0.000134  -0.000066
     2  C   -0.021868  -0.027472  -0.002852  -0.004516   0.001859   0.000037
     3  C    0.402906   0.373365  -0.034233  -0.031283  -0.037232  -0.002534
     4  H   -0.003510   0.008154   0.002949   0.000110   0.000214   0.001298
     5  H   -0.008219  -0.004055  -0.000231   0.007726   0.000409   0.000054
     6  H   -0.028744  -0.025499  -0.000287   0.001332   0.001378   0.000043
     7  Si  11.901311  -0.009967   0.477308   0.455595   0.389820  -0.028222
     8  H   -0.009967   0.564466   0.001205   0.001324   0.000488  -0.000036
     9  O    0.477308   0.001205   7.845049  -0.040588  -0.021137   0.296460
    10  O    0.455595   0.001324  -0.040588   7.845269  -0.026715  -0.000937
    11  H    0.389820   0.000488  -0.021137  -0.026715   0.745818   0.005486
    12  H   -0.028222  -0.000036   0.296460  -0.000937   0.005486   0.412493
    13  C   -0.051783   0.000080  -0.010703   0.264554   0.002915   0.000960
    14  H    0.007884  -0.000004   0.000226  -0.040325  -0.000258   0.000021
    15  H   -0.016906  -0.000025  -0.000461  -0.043225   0.010597   0.000030
    16  H   -0.004677  -0.000011   0.009040  -0.044872  -0.001917   0.000342
             13         14         15         16
     1  H    0.000006  -0.000004   0.000000   0.000001
     2  C   -0.000035   0.000234  -0.000036  -0.000192
     3  C    0.001284  -0.000331  -0.000032   0.000814
     4  H    0.000090  -0.000004  -0.000004   0.000001
     5  H   -0.000049  -0.000169   0.000084   0.000016
     6  H   -0.000116  -0.000001   0.000010   0.000013
     7  Si  -0.051783   0.007884  -0.016906  -0.004677
     8  H    0.000080  -0.000004  -0.000025  -0.000011
     9  O   -0.010703   0.000226  -0.000461   0.009040
    10  O    0.264554  -0.040325  -0.043225  -0.044872
    11  H    0.002915  -0.000258   0.010597  -0.001917
    12  H    0.000960   0.000021   0.000030   0.000342
    13  C    4.766397   0.401576   0.418077   0.410368
    14  H    0.401576   0.569635  -0.031263  -0.034521
    15  H    0.418077  -0.031263   0.593197  -0.046442
    16  H    0.410368  -0.034521  -0.046442   0.597253
 Mulliken atomic charges:
              1
     1  H    0.130610
     2  C   -0.391510
     3  C   -0.306573
     4  H    0.111160
     5  H    0.143383
     6  H    0.123139
     7  Si   0.532076
     8  H    0.124977
     9  O   -0.521653
    10  O   -0.343455
    11  H   -0.071590
    12  H    0.314570
    13  C   -0.203621
    14  H    0.127304
    15  H    0.116397
    16  H    0.114785
 Sum of Mulliken atomic charges =   0.00000
 Mulliken charges with hydrogens summed into heavy atoms:
              1
     2  C   -0.006356
     3  C   -0.058457
     7  Si   0.460485
     9  O   -0.207083
    10  O   -0.343455
    13  C    0.154865
 Sum of Mulliken charges with hydrogens summed into heavy atoms =   0.00000
 Electronic spatial extent (au):  <R**2>=            869.9821
 Charge=              0.0000 electrons
 Dipole moment (field-independent basis, Debye):
    X=             -0.6730    Y=             -0.5114    Z=             -1.0605  Tot=              1.3561
 Quadrupole moment (field-independent basis, Debye-Ang):
   XX=            -41.5881   YY=            -48.9425   ZZ=            -42.7735
   XY=             -2.1162   XZ=             -0.7982   YZ=             -2.1448
 Traceless Quadrupole moment (field-independent basis, Debye-Ang):
   XX=              2.8466   YY=             -4.5078   ZZ=              1.6612
   XY=             -2.1162   XZ=             -0.7982   YZ=             -2.1448
 Octapole moment (field-independent basis, Debye-Ang**2):
  XXX=             12.8908  YYY=             -5.6428  ZZZ=            -11.4659  XYY=             -1.4427
  XXY=             -3.4328  XXZ=             -0.4084  XZZ=              1.7596  YZZ=              5.0226
  YYZ=             -4.0624  XYZ=              0.9221
 Hexadecapole moment (field-independent basis, Debye-Ang**3):
 XXXX=           -713.9676 YYYY=           -289.2235 ZZZZ=           -163.5116 XXXY=            -10.4841
 XXXZ=             -6.4706 YYYX=            -12.0436 YYYZ=             -8.2857 ZZZX=             -6.0544
 ZZZY=            -21.2807 XXYY=           -164.5587 XXZZ=           -151.4861 YYZZ=            -64.7938
 XXYZ=             -1.0462 YYXZ=             -3.3269 ZZXY=             -1.4622
 N-N= 3.294961071458D+02 E-N=-1.983003550146D+03  KE= 5.582493403017D+02
 1\1\GINC-TARSUS4\SP\RPBE1PBE\def2TZVP\C3H10O2Si1\RENATO\08-Aug-2018\0\
 \#SP PBE1PBE/Def2TZVP geom=connectivity\\Structure: 94\\0,1\H,0,0.,0.,
 0.\C,0,1.093,0.,0.\C,0,1.655,1.421,0.\H,0,1.41,-0.56,-0.885\H,0,1.424,
 -0.557,0.88\H,0,1.308,1.969,-0.883\Si,0,3.513,1.515,0.035\H,0,1.282,1.
 975,0.868\O,0,4.436,0.847,-1.156\O,0,3.968,0.824,1.454\H,0,4.029,2.906
 ,-0.04\H,0,4.294,-0.079,-1.36\C,0,5.301,0.766,1.905\H,0,5.308,0.322,2.
 902\H,0,5.747,1.766,1.967\H,0,5.921,0.153,1.244\\Version=EM64L-G09RevC
 .01\State=1-A\HF=-560.0584608\RMSD=7.383e-09\Dipole=-0.2551663,-0.4684
 185,0.0118885\Quadrupole=0.7621831,0.212223,-0.9744061,-1.6599688,2.50
 01199,2.0481323\PG=C01 [X(C3H10O2Si1)]\\@


 FROM AN ANONYMOUS WRITER, ON PERSPECTIVE:

 MAN, DESPITE HIS ARTISTIC PRETENSIONS, HIS SOPHISTICATION AND MANY 
 ACCOMPLISHMENTS, OWES THE FACT OF HIS EXISTENCE TO A SIX-INCH LAYER OF 
 TOPSOIL AND THE FACT THAT IT RAINS.
 Job cpu time:  0 days  0 hours  8 minutes 42.5 seconds.
 File lengths (MBytes):  RWF=     40 Int=      0 D2E=      0 Chk=      3 Scr=      1
 Normal termination of Gaussian 09 at Wed Aug  8 20:27:15 2018.
