 Entering Gaussian System, Link 0=g09
 Initial command:
 /usr/local/gaussian09/g09/l1.exe /scratch/renato/Gau-11693.inp -scrdir=/scratch/renato/
 Entering Link 1 = /usr/local/gaussian09/g09/l1.exe PID=     11695.
  
 Copyright (c) 1988,1990,1992,1993,1995,1998,2003,2009,2011,
            Gaussian, Inc.  All Rights Reserved.
  
 This is part of the Gaussian(R) 09 program.  It is based on
 the Gaussian(R) 03 system (copyright 2003, Gaussian, Inc.),
 the Gaussian(R) 98 system (copyright 1998, Gaussian, Inc.),
 the Gaussian(R) 94 system (copyright 1995, Gaussian, Inc.),
 the Gaussian 92(TM) system (copyright 1992, Gaussian, Inc.),
 the Gaussian 90(TM) system (copyright 1990, Gaussian, Inc.),
 the Gaussian 88(TM) system (copyright 1988, Gaussian, Inc.),
 the Gaussian 86(TM) system (copyright 1986, Carnegie Mellon
 University), and the Gaussian 82(TM) system (copyright 1983,
 Carnegie Mellon University). Gaussian is a federally registered
 trademark of Gaussian, Inc.
  
 This software contains proprietary and confidential information,
 including trade secrets, belonging to Gaussian, Inc.
  
 This software is provided under written license and may be
 used, copied, transmitted, or stored only in accord with that
 written license.
  
 The following legend is applicable only to US Government
 contracts under FAR:
  
                    RESTRICTED RIGHTS LEGEND
  
 Use, reproduction and disclosure by the US Government is
 subject to restrictions as set forth in subparagraphs (a)
 and (c) of the Commercial Computer Software - Restricted
 Rights clause in FAR 52.227-19.
  
 Gaussian, Inc.
 340 Quinnipiac St., Bldg. 40, Wallingford CT 06492
  
  
 ---------------------------------------------------------------
 Warning -- This program may not be used in any manner that
 competes with the business of Gaussian, Inc. or will provide
 assistance to any competitor of Gaussian, Inc.  The licensee
 of this program is prohibited from giving any competitor of
 Gaussian, Inc. access to this program.  By using this program,
 the user acknowledges that Gaussian, Inc. is engaged in the
 business of creating and licensing software in the field of
 computational chemistry and represents and warrants to the
 licensee that it is not a competitor of Gaussian, Inc. and that
 it will not use this program in any manner prohibited above.
 ---------------------------------------------------------------
  

 Cite this work as:
 Gaussian 09, Revision C.01,
 M. J. Frisch, G. W. Trucks, H. B. Schlegel, G. E. Scuseria, 
 M. A. Robb, J. R. Cheeseman, G. Scalmani, V. Barone, B. Mennucci, 
 G. A. Petersson, H. Nakatsuji, M. Caricato, X. Li, H. P. Hratchian, 
 A. F. Izmaylov, J. Bloino, G. Zheng, J. L. Sonnenberg, M. Hada, 
 M. Ehara, K. Toyota, R. Fukuda, J. Hasegawa, M. Ishida, T. Nakajima, 
 Y. Honda, O. Kitao, H. Nakai, T. Vreven, J. A. Montgomery, Jr., 
 J. E. Peralta, F. Ogliaro, M. Bearpark, J. J. Heyd, E. Brothers, 
 K. N. Kudin, V. N. Staroverov, T. Keith, R. Kobayashi, J. Normand, 
 K. Raghavachari, A. Rendell, J. C. Burant, S. S. Iyengar, J. Tomasi, 
 M. Cossi, N. Rega, J. M. Millam, M. Klene, J. E. Knox, J. B. Cross, 
 V. Bakken, C. Adamo, J. Jaramillo, R. Gomperts, R. E. Stratmann, 
 O. Yazyev, A. J. Austin, R. Cammi, C. Pomelli, J. W. Ochterski, 
 R. L. Martin, K. Morokuma, V. G. Zakrzewski, G. A. Voth, 
 P. Salvador, J. J. Dannenberg, S. Dapprich, A. D. Daniels, 
 O. Farkas, J. B. Foresman, J. V. Ortiz, J. Cioslowski, 
 and D. J. Fox, Gaussian, Inc., Wallingford CT, 2010.
 
 ******************************************
 Gaussian 09:  EM64L-G09RevC.01 23-Sep-2011
                 8-Aug-2018 
 ******************************************
 %nproc=2
 Will use up to    2 processors via shared memory.
 %mem=256MB
 %RWF=a13.rwf
 %chk=a139
 %NoSave
 --------------------------------------
 #SP PBE1PBE/Def2TZVP geom=connectivity
 --------------------------------------
 1/38=1,57=2/1;
 2/12=2,17=6,18=5,40=1/2;
 3/5=44,7=101,11=2,16=1,25=1,30=1,74=-13/1,2,3;
 4//1;
 5/5=2,38=5/2;
 6/7=2,8=2,9=2,10=2,28=1/1;
 99/5=1,9=1/99;
 ------------
 Structure: 9
 ------------
 Charge =  0 Multiplicity = 1
 Symbolic Z-Matrix:
 H                     0.        0.        0. 
 C                     1.093     0.        0. 
 C                     1.655     1.421     0. 
 H                     1.41     -0.56     -0.885 
 H                     1.424    -0.557     0.88 
 H                     1.308     1.969    -0.883 
 Si                    3.513     1.515     0.035 
 H                     1.282     1.975     0.868 
 O                     3.678     0.684    -1.379 
 O                     3.968     0.824     1.454 
 H                     4.029     2.906    -0.04 
 H                     3.248    -0.17     -1.444 
 C                     5.301     0.766     1.905 
 H                     5.308     0.322     2.902 
 H                     5.747     1.766     1.967 
 H                     5.921     0.153     1.244 
 
                          Input orientation:                          
 ---------------------------------------------------------------------
 Center     Atomic      Atomic             Coordinates (Angstroms)
 Number     Number       Type             X           Y           Z
 ---------------------------------------------------------------------
      1          1           0        0.000000    0.000000    0.000000
      2          6           0        1.093000    0.000000    0.000000
      3          6           0        1.655000    1.421000    0.000000
      4          1           0        1.410000   -0.560000   -0.885000
      5          1           0        1.424000   -0.557000    0.880000
      6          1           0        1.308000    1.969000   -0.883000
      7         14           0        3.513000    1.515000    0.035000
      8          1           0        1.282000    1.975000    0.868000
      9          8           0        3.678000    0.684000   -1.379000
     10          8           0        3.968000    0.824000    1.454000
     11          1           0        4.029000    2.906000   -0.040000
     12          1           0        3.248000   -0.170000   -1.444000
     13          6           0        5.301000    0.766000    1.905000
     14          1           0        5.308000    0.322000    2.902000
     15          1           0        5.747000    1.766000    1.967000
     16          1           0        5.921000    0.153000    1.244000
 ---------------------------------------------------------------------
                    Distance matrix (angstroms):
                    1          2          3          4          5
     1  H    0.000000
     2  C    1.093000   0.000000
     3  C    2.181345   1.528098   0.000000
     4  H    1.756395   1.094218   2.183486   0.000000
     5  H    1.764207   1.092799   2.177210   1.765058   0.000000
     6  H    2.523393   2.168611   1.095629   2.531057   3.082580
     7  Si   3.825914   2.855320   1.860706   3.094291   3.061230
     8  H    2.509497   2.165588   1.095203   3.084740   2.536007
     9  O    3.987127   3.008608   2.556822   2.633514   3.423986
    10  O    4.305591   3.325465   2.796515   3.732257   2.951029
    11  H    4.967824   4.131166   2.800482   4.425646   4.429988
    12  H    3.558587   2.599627   2.674709   1.960312   2.979550
    13  C    5.684750   4.682205   4.165497   4.968124   4.222805
    14  H    6.058065   5.127525   4.793101   5.505788   4.466160
    15  H    6.325809   5.352342   4.553304   5.688036   5.026552
    16  H    6.052205   4.988039   4.621051   5.038862   4.567232
                    6          7          8          9         10
     6  H    0.000000
     7  Si   2.431227   0.000000
     8  H    1.751203   2.425459   0.000000
     9  O    2.741193   1.648388   3.529378   0.000000
    10  O    3.721316   1.642579   2.980401   2.851243   0.000000
    11  H    2.998743   1.485517   3.039282   2.617901   2.563295
    12  H    2.941707   2.257630   3.716386   0.958353   3.147196
    13  C    5.016393   2.693482   4.323125   3.664084   1.408423
    14  H    5.747942   3.586776   4.803982   4.595096   2.035757
    15  H    5.279056   2.964183   4.603011   4.080098   2.077348
    16  H    5.394604   3.019137   4.998138   3.491868   2.075705
                   11         12         13         14         15
    11  H    0.000000
    12  H    3.470296   0.000000
    13  C    3.159210   4.038156   0.000000
    14  H    4.119255   4.834602   1.091418   0.000000
    15  H    2.877355   4.650593   1.096704   1.775410   0.000000
    16  H    3.578733   3.804550   1.094116   1.775752   1.776168
                   16
    16  H    0.000000
 Stoichiometry    C3H10O2Si
 Framework group  C1[X(C3H10O2Si)]
 Deg. of freedom    42
 Full point group                 C1      NOp   1
 Largest Abelian subgroup         C1      NOp   1
 Largest concise Abelian subgroup C1      NOp   1
                         Standard orientation:                         
 ---------------------------------------------------------------------
 Center     Atomic      Atomic             Coordinates (Angstroms)
 Number     Number       Type             X           Y           Z
 ---------------------------------------------------------------------
      1          1           0       -3.045838   -1.451111   -0.346519
      2          6           0       -2.094470   -0.953485   -0.551256
      3          6           0       -1.489297   -0.354096    0.717438
      4          1           0       -2.293927   -0.186180   -1.305428
      5          1           0       -1.424592   -1.691507   -0.999358
      6          1           0       -2.175293    0.377037    1.159316
      7         14           0        0.152606    0.484556    0.466358
      8          1           0       -1.347327   -1.133780    1.473353
      9          8           0       -0.458104    1.570444   -0.613023
     10          8           0        1.181161   -0.691274   -0.041154
     11          1           0        0.678879    1.120016    1.701667
     12          1           0       -0.933655    1.223920   -1.369471
     13          6           0        2.555653   -0.484861   -0.268789
     14          1           0        3.009543   -1.443336   -0.526671
     15          1           0        3.055592   -0.093188    0.625310
     16          1           0        2.724359    0.215637   -1.092155
 ---------------------------------------------------------------------
 Rotational constants (GHZ):      4.3562019      1.8685495      1.6049337
 Standard basis: def2TZVP (5D, 7F)
 There are   252 symmetry adapted basis functions of A   symmetry.
 Integral buffers will be    131072 words long.
 Raffenetti 2 integral format.
 Two-electron integral symmetry is turned on.
   252 basis functions,   404 primitive gaussians,   282 cartesian basis functions
    29 alpha electrons       29 beta electrons
       nuclear repulsion energy       331.5183007404 Hartrees.
 NAtoms=   16 NActive=   16 NUniq=   16 SFac= 1.00D+00 NAtFMM=   60 NAOKFM=F Big=F
 One-electron integrals computed using PRISM.
   1 Symmetry operations used in ECPInt.
 ECPInt:  NShTT=    5886 NPrTT=   17754 LenC2=    5779 LenP2D=   13940.
 LDataN:  DoStor=T MaxTD1= 6 Len=  172
 NBasis=   252 RedAO= T  NBF=   252
 NBsUse=   252 1.00D-06 NBFU=   252
 Harris functional with IExCor= 1009 diagonalized for initial guess.
 ExpMin= 7.01D-02 ExpMax= 4.48D+04 ExpMxC= 1.53D+03 IAcc=2 IRadAn=         4 AccDes= 0.00D+00
 HarFok:  IExCor= 1009 AccDes= 0.00D+00 IRadAn=         4 IDoV= 1
 ScaDFX=  1.000000  1.000000  1.000000  1.000000
 FoFCou: FMM=F IPFlag=           0 FMFlag=      100000 FMFlg1=           0
         NFxFlg=           0 DoJE=T BraDBF=F KetDBF=T FulRan=T
         Omega=  0.000000  0.000000  1.000000  0.000000  0.000000 ICntrl=     500 IOpCl=  0
         NMat0=    1 NMatS0=    1 NMatT0=    0 NMatD0=    1 NMtDS0=    0 NMtDT0=    0
         I1Cent=           4 NGrid=           0.
 Petite list used in FoFCou.
 Initial guess orbital symmetries:
       Occupied  (A) (A) (A) (A) (A) (A) (A) (A) (A) (A) (A) (A)
                 (A) (A) (A) (A) (A) (A) (A) (A) (A) (A) (A) (A)
                 (A) (A) (A) (A) (A)
       Virtual   (A) (A) (A) (A) (A) (A) (A) (A) (A) (A) (A) (A)
                 (A) (A) (A) (A) (A) (A) (A) (A) (A) (A) (A) (A)
                 (A) (A) (A) (A) (A) (A) (A) (A) (A) (A) (A) (A)
                 (A) (A) (A) (A) (A) (A) (A) (A) (A) (A) (A) (A)
                 (A) (A) (A) (A) (A) (A) (A) (A) (A) (A) (A) (A)
                 (A) (A) (A) (A) (A) (A) (A) (A) (A) (A) (A) (A)
                 (A) (A) (A) (A) (A) (A) (A) (A) (A) (A) (A) (A)
                 (A) (A) (A) (A) (A) (A) (A) (A) (A) (A) (A) (A)
                 (A) (A) (A) (A) (A) (A) (A) (A) (A) (A) (A) (A)
                 (A) (A) (A) (A) (A) (A) (A) (A) (A) (A) (A) (A)
                 (A) (A) (A) (A) (A) (A) (A) (A) (A) (A) (A) (A)
                 (A) (A) (A) (A) (A) (A) (A) (A) (A) (A) (A) (A)
                 (A) (A) (A) (A) (A) (A) (A) (A) (A) (A) (A) (A)
                 (A) (A) (A) (A) (A) (A) (A) (A) (A) (A) (A) (A)
                 (A) (A) (A) (A) (A) (A) (A) (A) (A) (A) (A) (A)
                 (A) (A) (A) (A) (A) (A) (A) (A) (A) (A) (A) (A)
                 (A) (A) (A) (A) (A) (A) (A) (A) (A) (A) (A) (A)
                 (A) (A) (A) (A) (A) (A) (A) (A) (A) (A) (A) (A)
                 (A) (A) (A) (A) (A) (A) (A)
 The electronic state of the initial guess is 1-A.
 Requested convergence on RMS density matrix=1.00D-08 within 128 cycles.
 Requested convergence on MAX density matrix=1.00D-06.
 Requested convergence on             energy=1.00D-06.
 No special actions if energy rises.
 Integral accuracy reduced to 1.0D-05 until final iterations.
 Initial convergence to 1.0D-05 achieved.  Increase integral accuracy.
 SCF Done:  E(RPBE1PBE) =  -560.044200648     A.U. after   13 cycles
             Convg  =    0.3358D-08             -V/T =  2.0032

 **********************************************************************

            Population analysis using the SCF density.

 **********************************************************************

 Orbital symmetries:
       Occupied  (A) (A) (A) (A) (A) (A) (A) (A) (A) (A) (A) (A)
                 (A) (A) (A) (A) (A) (A) (A) (A) (A) (A) (A) (A)
                 (A) (A) (A) (A) (A)
       Virtual   (A) (A) (A) (A) (A) (A) (A) (A) (A) (A) (A) (A)
                 (A) (A) (A) (A) (A) (A) (A) (A) (A) (A) (A) (A)
                 (A) (A) (A) (A) (A) (A) (A) (A) (A) (A) (A) (A)
                 (A) (A) (A) (A) (A) (A) (A) (A) (A) (A) (A) (A)
                 (A) (A) (A) (A) (A) (A) (A) (A) (A) (A) (A) (A)
                 (A) (A) (A) (A) (A) (A) (A) (A) (A) (A) (A) (A)
                 (A) (A) (A) (A) (A) (A) (A) (A) (A) (A) (A) (A)
                 (A) (A) (A) (A) (A) (A) (A) (A) (A) (A) (A) (A)
                 (A) (A) (A) (A) (A) (A) (A) (A) (A) (A) (A) (A)
                 (A) (A) (A) (A) (A) (A) (A) (A) (A) (A) (A) (A)
                 (A) (A) (A) (A) (A) (A) (A) (A) (A) (A) (A) (A)
                 (A) (A) (A) (A) (A) (A) (A) (A) (A) (A) (A) (A)
                 (A) (A) (A) (A) (A) (A) (A) (A) (A) (A) (A) (A)
                 (A) (A) (A) (A) (A) (A) (A) (A) (A) (A) (A) (A)
                 (A) (A) (A) (A) (A) (A) (A) (A) (A) (A) (A) (A)
                 (A) (A) (A) (A) (A) (A) (A) (A) (A) (A) (A) (A)
                 (A) (A) (A) (A) (A) (A) (A) (A) (A) (A) (A) (A)
                 (A) (A) (A) (A) (A) (A) (A) (A) (A) (A) (A) (A)
                 (A) (A) (A) (A) (A) (A) (A)
 The electronic state is 1-A.
 Alpha  occ. eigenvalues --  -66.25770 -19.21062 -19.19442 -10.27148 -10.21440
 Alpha  occ. eigenvalues --  -10.19344  -5.33416  -3.66937  -3.66869  -3.66650
 Alpha  occ. eigenvalues --   -1.05016  -1.02182  -0.77416  -0.71208  -0.63551
 Alpha  occ. eigenvalues --   -0.56350  -0.51780  -0.47529  -0.47174  -0.45801
 Alpha  occ. eigenvalues --   -0.43495  -0.41423  -0.38277  -0.37100  -0.36370
 Alpha  occ. eigenvalues --   -0.34950  -0.32615  -0.30950  -0.28066
 Alpha virt. eigenvalues --    0.01935   0.04847   0.05729   0.07827   0.09042
 Alpha virt. eigenvalues --    0.09348   0.11044   0.11693   0.11907   0.12986
 Alpha virt. eigenvalues --    0.13660   0.15082   0.16760   0.18233   0.20265
 Alpha virt. eigenvalues --    0.21782   0.22463   0.22573   0.25093   0.25405
 Alpha virt. eigenvalues --    0.26723   0.26951   0.28452   0.29815   0.31514
 Alpha virt. eigenvalues --    0.33933   0.35209   0.38378   0.40287   0.41167
 Alpha virt. eigenvalues --    0.41873   0.42901   0.43874   0.45276   0.45494
 Alpha virt. eigenvalues --    0.46441   0.47187   0.47896   0.48411   0.50216
 Alpha virt. eigenvalues --    0.51562   0.54439   0.56145   0.58180   0.58311
 Alpha virt. eigenvalues --    0.61457   0.65147   0.66258   0.67345   0.69439
 Alpha virt. eigenvalues --    0.72639   0.73247   0.76231   0.77743   0.80115
 Alpha virt. eigenvalues --    0.82734   0.84638   0.86390   0.90136   0.91608
 Alpha virt. eigenvalues --    0.93997   0.95343   0.97591   0.99026   0.99810
 Alpha virt. eigenvalues --    1.03737   1.05115   1.06463   1.10387   1.11271
 Alpha virt. eigenvalues --    1.13523   1.14408   1.17370   1.18341   1.19625
 Alpha virt. eigenvalues --    1.24502   1.31689   1.35131   1.37581   1.39639
 Alpha virt. eigenvalues --    1.43377   1.45197   1.46983   1.49228   1.51133
 Alpha virt. eigenvalues --    1.52322   1.53701   1.54465   1.57308   1.58694
 Alpha virt. eigenvalues --    1.60758   1.62049   1.64650   1.65161   1.66000
 Alpha virt. eigenvalues --    1.68958   1.72990   1.74559   1.76689   1.79035
 Alpha virt. eigenvalues --    1.81168   1.83829   1.86220   1.88417   1.93491
 Alpha virt. eigenvalues --    1.94577   1.95678   1.97948   2.02182   2.03189
 Alpha virt. eigenvalues --    2.05933   2.09383   2.11394   2.12664   2.15319
 Alpha virt. eigenvalues --    2.17697   2.21393   2.25086   2.29281   2.30857
 Alpha virt. eigenvalues --    2.32405   2.33724   2.34111   2.35327   2.36309
 Alpha virt. eigenvalues --    2.38553   2.40710   2.44461   2.47408   2.49972
 Alpha virt. eigenvalues --    2.51242   2.54441   2.54710   2.55741   2.58652
 Alpha virt. eigenvalues --    2.60015   2.62938   2.66202   2.69625   2.72089
 Alpha virt. eigenvalues --    2.73390   2.79172   2.81600   2.82000   2.84817
 Alpha virt. eigenvalues --    2.85176   2.94193   2.97238   2.97793   3.02545
 Alpha virt. eigenvalues --    3.05541   3.09926   3.11483   3.13195   3.15366
 Alpha virt. eigenvalues --    3.21374   3.23121   3.24587   3.30000   3.30490
 Alpha virt. eigenvalues --    3.32469   3.33344   3.37932   3.41086   3.43781
 Alpha virt. eigenvalues --    3.44168   3.47060   3.49315   3.52568   3.57173
 Alpha virt. eigenvalues --    3.58055   3.60527   3.64372   3.66509   3.77780
 Alpha virt. eigenvalues --    3.81907   3.89848   3.94454   3.97562   4.03904
 Alpha virt. eigenvalues --    4.18160   4.23883   4.25179   4.35096   4.36116
 Alpha virt. eigenvalues --    4.42428   4.48077   4.53548   4.57652   4.80419
 Alpha virt. eigenvalues --    5.16931   5.17308   5.17854   5.19354   5.27216
 Alpha virt. eigenvalues --    5.28787   5.38436   5.41670   5.45947   5.51869
 Alpha virt. eigenvalues --    5.79408   5.85277   6.02675   6.24252   6.43144
 Alpha virt. eigenvalues --    6.46721   6.56275   6.57384   6.59328   6.62337
 Alpha virt. eigenvalues --    6.68396   6.76245   6.83198   6.96004   7.07739
 Alpha virt. eigenvalues --    7.16561   7.29313  11.96333  22.37638  22.41034
 Alpha virt. eigenvalues --   22.47476  43.67257  43.95156
          Condensed to atoms (all electrons):
              1          2          3          4          5          6
     1  H    0.547994   0.407190  -0.032614  -0.023096  -0.023696  -0.006711
     2  C    0.407190   4.952173   0.307248   0.396115   0.411028  -0.026132
     3  C   -0.032614   0.307248   5.033595  -0.047633  -0.039874   0.388338
     4  H   -0.023096   0.396115  -0.047633   0.615240  -0.030240  -0.005831
     5  H   -0.023696   0.411028  -0.039874  -0.030240   0.537285   0.007750
     6  H   -0.006711  -0.026132   0.388338  -0.005831   0.007750   0.584289
     7  Si   0.008449  -0.020164   0.463081  -0.013419  -0.007821  -0.029109
     8  H   -0.006938  -0.026158   0.355230   0.010866  -0.003820  -0.027536
     9  O    0.000523  -0.009582  -0.056501   0.005480  -0.000510  -0.004105
    10  O    0.000022  -0.005109  -0.030097   0.001147   0.007318   0.001248
    11  H   -0.000067   0.001743  -0.032764   0.000186   0.000412   0.001274
    12  H   -0.000152   0.004734  -0.004191   0.005111  -0.000176   0.000293
    13  C    0.000011  -0.000272   0.003209   0.000075  -0.000084  -0.000158
    14  H   -0.000004   0.000194  -0.000506   0.000002  -0.000142   0.000000
    15  H    0.000002  -0.000049   0.000063   0.000005   0.000079  -0.000005
    16  H   -0.000001  -0.000009   0.000646  -0.000051   0.000002   0.000021
              7          8          9         10         11         12
     1  H    0.008449  -0.006938   0.000523   0.000022  -0.000067  -0.000152
     2  C   -0.020164  -0.026158  -0.009582  -0.005109   0.001743   0.004734
     3  C    0.463081   0.355230  -0.056501  -0.030097  -0.032764  -0.004191
     4  H   -0.013419   0.010866   0.005480   0.001147   0.000186   0.005111
     5  H   -0.007821  -0.003820  -0.000510   0.007318   0.000412  -0.000176
     6  H   -0.029109  -0.027536  -0.004105   0.001248   0.001274   0.000293
     7  Si  11.900120  -0.030680   0.436838   0.439514   0.392195  -0.029293
     8  H   -0.030680   0.619934   0.006235   0.003097   0.001471  -0.000222
     9  O    0.436838   0.006235   7.868181  -0.026270  -0.008342   0.309516
    10  O    0.439514   0.003097  -0.026270   7.837154  -0.024415  -0.001546
    11  H    0.392195   0.001471  -0.008342  -0.024415   0.698738   0.002407
    12  H   -0.029293  -0.000222   0.309516  -0.001546   0.002407   0.396837
    13  C   -0.045622   0.000056  -0.002507   0.255264   0.001527   0.000079
    14  H    0.007310   0.000020  -0.000009  -0.041421  -0.000205   0.000010
    15  H   -0.019253  -0.000010  -0.000397  -0.041247   0.009010  -0.000042
    16  H   -0.003731  -0.000041   0.003191  -0.043471  -0.001862   0.000329
             13         14         15         16
     1  H    0.000011  -0.000004   0.000002  -0.000001
     2  C   -0.000272   0.000194  -0.000049  -0.000009
     3  C    0.003209  -0.000506   0.000063   0.000646
     4  H    0.000075   0.000002   0.000005  -0.000051
     5  H   -0.000084  -0.000142   0.000079   0.000002
     6  H   -0.000158   0.000000  -0.000005   0.000021
     7  Si  -0.045622   0.007310  -0.019253  -0.003731
     8  H    0.000056   0.000020  -0.000010  -0.000041
     9  O   -0.002507  -0.000009  -0.000397   0.003191
    10  O    0.255264  -0.041421  -0.041247  -0.043471
    11  H    0.001527  -0.000205   0.009010  -0.001862
    12  H    0.000079   0.000010  -0.000042   0.000329
    13  C    4.776111   0.404143   0.417851   0.413382
    14  H    0.404143   0.559339  -0.028712  -0.032059
    15  H    0.417851  -0.028712   0.591965  -0.049407
    16  H    0.413382  -0.032059  -0.049407   0.588148
 Mulliken atomic charges:
              1
     1  H    0.129086
     2  C   -0.392949
     3  C   -0.307229
     4  H    0.086042
     5  H    0.142489
     6  H    0.116373
     7  Si   0.551586
     8  H    0.098496
     9  O   -0.521741
    10  O   -0.331190
    11  H   -0.041308
    12  H    0.316305
    13  C   -0.223065
    14  H    0.132044
    15  H    0.120149
    16  H    0.124911
 Sum of Mulliken atomic charges =   0.00000
 Mulliken charges with hydrogens summed into heavy atoms:
              1
     2  C   -0.035332
     3  C   -0.092360
     7  Si   0.510279
     9  O   -0.205436
    10  O   -0.331190
    13  C    0.154039
 Sum of Mulliken charges with hydrogens summed into heavy atoms =   0.00000
 Electronic spatial extent (au):  <R**2>=            857.6949
 Charge=              0.0000 electrons
 Dipole moment (field-independent basis, Debye):
    X=              0.7275    Y=             -0.5675    Z=             -0.5347  Tot=              1.0664
 Quadrupole moment (field-independent basis, Debye-Ang):
   XX=            -40.2671   YY=            -49.6962   ZZ=            -43.4382
   XY=              0.0144   XZ=              0.7127   YZ=              0.0184
 Traceless Quadrupole moment (field-independent basis, Debye-Ang):
   XX=              4.2001   YY=             -5.2290   ZZ=              1.0290
   XY=              0.0144   XZ=              0.7127   YZ=              0.0184
 Octapole moment (field-independent basis, Debye-Ang**2):
  XXX=             15.4762  YYY=             -6.9439  ZZZ=             -8.7318  XYY=              2.7125
  XXY=              0.0875  XXZ=             -4.4064  XZZ=             -0.6753  YZZ=              3.0963
  YYZ=             -0.1730  XYZ=              1.8311
 Hexadecapole moment (field-independent basis, Debye-Ang**3):
 XXXX=           -703.5582 YYYY=           -275.4973 ZZZZ=           -165.3139 XXXY=            -17.4928
 XXXZ=             -3.3677 YYYX=             -8.0974 YYYZ=              0.3792 ZZZX=              4.3888
 ZZZY=            -13.4199 XXYY=           -159.9657 XXZZ=           -149.3079 YYZZ=            -69.8346
 XXYZ=             -2.7495 YYXZ=             -1.3910 ZZXY=             -8.8641
 N-N= 3.315183007404D+02 E-N=-1.987012602392D+03  KE= 5.582751644667D+02
 1\1\GINC-TARSUS4\SP\RPBE1PBE\def2TZVP\C3H10O2Si1\RENATO\08-Aug-2018\0\
 \#SP PBE1PBE/Def2TZVP geom=connectivity\\Structure: 9\\0,1\H,0,0.,0.,0
 .\C,0,1.093,0.,0.\C,0,1.655,1.421,0.\H,0,1.41,-0.56,-0.885\H,0,1.424,-
 0.557,0.88\H,0,1.308,1.969,-0.883\Si,0,3.513,1.515,0.035\H,0,1.282,1.9
 75,0.868\O,0,3.678,0.684,-1.379\O,0,3.968,0.824,1.454\H,0,4.029,2.906,
 -0.04\H,0,3.248,-0.17,-1.444\C,0,5.301,0.766,1.905\H,0,5.308,0.322,2.9
 02\H,0,5.747,1.766,1.967\H,0,5.921,0.153,1.244\\Version=EM64L-G09RevC.
 01\State=1-A\HF=-560.0442006\RMSD=3.358e-09\Dipole=0.1868759,-0.234023
 5,0.2938437\Quadrupole=1.420176,0.5992638,-2.0194398,0.1013302,2.84083
 99,1.3032421\PG=C01 [X(C3H10O2Si1)]\\@


      LET US REMEMBER, PLEASE, THAT THE SEARCH FOR THE CONSTITUTION
      OF THE WORLD IS ONE OF THE GREATEST AND NOBLEST PROBLEMS PRESENTED 
      BY NATURE.

                                                  -- GALILEO
 Job cpu time:  0 days  0 hours 10 minutes 41.2 seconds.
 File lengths (MBytes):  RWF=     40 Int=      0 D2E=      0 Chk=      3 Scr=      1
 Normal termination of Gaussian 09 at Wed Aug  8 20:54:29 2018.
